********************************************************************************
*                       GENERAL UTILITY LATTICE PROGRAM                        *
*                                 Julian Gale                                  *
*                      Nanochemistry Research Institute                        *
*                           Department of Chemistry                            *
*                    Curtin University, Western Australia                      *
********************************************************************************
* Version = 4.0.6 * Last modified =   1st October 2012                         *
********************************************************************************
*  optimise     - perform optimisation run                                     *
*  conp         - constant pressure calculation                                *
*  property     - calculate properties for final geometry                      *
*  defect       - perform defect calculation after bulk run                    *
*  regi_before  - output region 1 at start of defect calculation               *
*  distance     - calculate distances                                          *
*  compare      - compare initial and final structures                         *
********************************************************************************
* Uranium dioxide simulations                                                  *
********************************************************************************


  Job Started  at 13:33.06 21st November   2018                               

  Number of CPUs =     1

  Host name      = che-thor                                


  Total number of configurations input =   1

********************************************************************************
*  Input for Configuration =   1                                               *
********************************************************************************

  Formula = UO2                                                         

  Number of irreducible atoms/shells =       4


  Total number atoms/shells =       6

  Dimensionality = 3               :  Bulk   


  Symmetry :

  Crystal family                   :  Cubic       
  Crystal class  (Groth - 1921)    :  Cubic Hexakisoctahedral              

  Space group (centrosymmetric)    :  F M 3 M         

  Patterson group                  :  F m -3 m 

  Cartesian lattice vectors (Angstroms) :

        0.000000    2.734100    2.734100
        2.734100    0.000000    2.734100
        2.734100    2.734100    0.000000

  Primitive cell parameters :            Full cell parameters :

  a =   3.8666    alpha =  60.0000       a =   5.4682    alpha =  90.0000
  b =   3.8666    beta  =  60.0000       b =   5.4682    beta  =  90.0000
  c =   3.8666    gamma =  60.0000       c =   5.4682    gamma =  90.0000

  Initial volumes (Angstroms**3):

  Primitive cell =          40.876451    Full cell =         163.505803

  Temperature of configuration =  0.000     K 

  Pressure of configuration =         0.000 GPa 

  Fractional coordinates of asymmetric unit :

--------------------------------------------------------------------------------
   No.  Atomic       x           y          z         Charge      Occupancy
        Label      (Frac)      (Frac)     (Frac)        (e)         (Frac)  
--------------------------------------------------------------------------------
      1 U     c    0.000000    0.000000    0.000000    -2.51000    1.000000    
      2 O     c    0.250000    0.250000    0.250000     2.40000    1.000000    
      3 U     s    0.000000    0.000000    0.000000     6.51000    1.000000    
      4 O     s    0.250000    0.250000    0.250000    -4.40000    1.000000    
--------------------------------------------------------------------------------


  Constraints : 

--------------------------------------------------------------------------------
  Constraint no.      Unconstrained     Constrained    Coefficient    Offset
                         Variable         Variable
--------------------------------------------------------------------------------
           1              Strain 1        Strain 2       1.00000      0.0000
           2              Strain 1        Strain 3       1.00000      0.0000
--------------------------------------------------------------------------------


  Distance calculation :


  Cutoff for distances  =      4.000000 Angstroms

--------------------------------------------------------------------------------
  Asymmetric unit site  Full lattice sites    No.  Distance      No.  Distance
      No.   At.No.            At.No.                (Angs)             (Angs) 
--------------------------------------------------------------------------------
       1   U     core        U     core        12    3.8666
                             U     shell       12    3.8666
                             O     core         8    2.3678
                             O     shell        8    2.3678
--------------------------------------------------------------------------------
       2   O     core        U     core         4    2.3678
                             U     shell        4    2.3678
                             O     core         6    2.7341       12    3.8666
                             O     shell        6    2.7341       12    3.8666
--------------------------------------------------------------------------------
       3   U     shell       U     core        12    3.8666
                             U     shell       12    3.8666
                             O     core         8    2.3678
                             O     shell        8    2.3678
--------------------------------------------------------------------------------
       4   O     shell       U     core         4    2.3678
                             U     shell        4    2.3678
                             O     core         6    2.7341       12    3.8666
                             O     shell        6    2.7341       12    3.8666
--------------------------------------------------------------------------------



********************************************************************************
*  General input information                                                   *
********************************************************************************

  Species output for all configurations : 

--------------------------------------------------------------------------------
  Species    Type    Atomic    Atomic    Charge       Radii (Angs)     Library
                     Number     Mass       (e)     Cova   Ionic  VDW   Symbol
--------------------------------------------------------------------------------
    U        Core       92     238.03  -2.510000   1.580  0.000  2.360          
    U        Shell      92       0.00   6.510000   1.580  0.000  2.360          
    O        Core        8      16.00   2.400000   0.730  0.000  1.360          
    O        Shell       8       0.00  -4.400000   0.730  0.000  1.360          
--------------------------------------------------------------------------------


  Lattice summation method               =    Ewald          (3-D)
                                         =    Parry          (2-D)
                                         =    Saunders et al (1-D)
  Accuracy factor for lattice sums       =   12.000


  Time limit = Infinity

  Maximum range for interatomic potentials =    100000.000000 Angstroms

  General interatomic potentials :

--------------------------------------------------------------------------------
Atom  Types   Potential         A         B         C         D     Cutoffs(Ang)
  1     2                                                            Min    Max 
--------------------------------------------------------------------------------
O    s U    s Buckingham    0.103E+04 0.403      0.00      0.00     0.000 15.000
O    s O    s Buck 4 range  0.113E+05 0.136      134.      2.10     0.000 15.000
U    c U    s Spring (c-s)   111.      0.00      0.00      0.00     0.000  0.600
O    c O    s Spring (c-s)   296.      0.00      0.00      0.00     0.000  0.600
--------------------------------------------------------------------------------

********************************************************************************
*  Output for configuration   1                                                *
********************************************************************************


  Components of energy : 

--------------------------------------------------------------------------------
  Interatomic potentials     =          20.59100851 eV
  Monopole - monopole (real) =         -14.53808335 eV
  Monopole - monopole (recip)=        -108.03524745 eV
  Monopole - monopole (total)=        -122.57333080 eV
--------------------------------------------------------------------------------
  Total lattice energy : 
    Primitive unit cell      =        -101.98232230 eV
    Non-primitive unit cell  =        -407.92928918 eV
--------------------------------------------------------------------------------
  Total lattice energy (in kJmol-1): 
    Primitive unit cell      =           -9839.7352 kJ/(mole unit cells)
    Non-primitive unit cell  =          -39358.9406 kJ/(mole unit cells)
--------------------------------------------------------------------------------


  Number of variables =        1

  Maximum number of calculations  =          1000
  Maximum Hessian update interval =            10
  Maximum step size               =   1.000000000
  Maximum parameter tolerance     =   0.000010000
  Maximum function  tolerance     =   0.000010000
  Maximum gradient  tolerance     =   0.001000000
  Maximum gradient  component     =   0.010000000

  Symmetry constrained optimisation

  Symmetry used for second derivatives

  Cell parameters to be optimised using strains

  Newton-Raphson optimiser to be used

  BFGS hessian update to be used

  Start of bulk optimisation :

  Cycle:      0 Energy:      -101.982322  Gnorm:      0.001971  CPU:    0.012
  ** Hessian calculated **


  **** Optimisation achieved ****


  Final energy =    -101.98232230 eV
  Final Gnorm  =       0.00000037

  Components of energy : 

--------------------------------------------------------------------------------
  Interatomic potentials     =          20.59050323 eV
  Monopole - monopole (real) =         -14.53802342 eV
  Monopole - monopole (recip)=        -108.03480210 eV
  Monopole - monopole (total)=        -122.57282553 eV
--------------------------------------------------------------------------------
  Total lattice energy : 
    Primitive unit cell      =        -101.98232230 eV
    Non-primitive unit cell  =        -407.92928920 eV
--------------------------------------------------------------------------------
  Total lattice energy (in kJmol-1): 
    Primitive unit cell      =           -9839.7352 kJ/(mole unit cells)
    Non-primitive unit cell  =          -39358.9406 kJ/(mole unit cells)
--------------------------------------------------------------------------------

  Final asymmetric unit coordinates :

--------------------------------------------------------------------------------
   No.  Atomic        x           y           z         Radius
        Label       (Frac)      (Frac)      (Frac)       (Angs) 
--------------------------------------------------------------------------------
     1  U     c     0.000000    0.000000    0.000000    0.000000
     2  O     c     0.250000    0.250000    0.250000    0.000000
     3  U     s     0.000000    0.000000    0.000000    0.000000
     4  O     s     0.250000    0.250000    0.250000    0.000000
--------------------------------------------------------------------------------

  Final Cartesian lattice vectors (Angstroms) :

        0.000000    2.734111    2.734111
        2.734111    0.000000    2.734111
        2.734111    2.734111    0.000000


  Final cell parameters and derivatives :

--------------------------------------------------------------------------------
       a            3.866617 Angstrom     dE/de1(xx)     0.000000 eV/strain
       b            3.866617 Angstrom     dE/de2(yy)     0.000000 eV/strain
       c            3.866617 Angstrom     dE/de3(zz)     0.000000 eV/strain
       alpha       60.000000 Degrees      dE/de4(yz)     0.000000 eV/strain
       beta        60.000000 Degrees      dE/de5(xz)     0.000000 eV/strain
       gamma       60.000000 Degrees      dE/de6(xy)     0.000000 eV/strain
--------------------------------------------------------------------------------

  Primitive cell volume =            40.876956 Angs**3

  Density of cell =     10.969567 g/cm**3

  Non-primitive lattice parameters :

  a    =     5.468223  b   =     5.468223  c    =     5.468223
  alpha=    90.000000  beta=    90.000000  gamma=    90.000000

  Non-primitive cell volume =           163.507825 Angs**3


  Final internal derivatives :

--------------------------------------------------------------------------------
   No.  Atomic          a             b             c           Radius
        Label          (eV)          (eV)          (eV)        (eV/Angs)
--------------------------------------------------------------------------------
      1 U     c       0.000000      0.000000      0.000000      0.000000
      2 O     c       0.000000      0.000000      0.000000      0.000000
      3 U     s       0.000000      0.000000      0.000000      0.000000
      4 O     s       0.000000      0.000000      0.000000      0.000000
--------------------------------------------------------------------------------
  Maximum abs         0.000000      0.000000      0.000000      0.000000
--------------------------------------------------------------------------------

  Comparison of initial and final structures : 

--------------------------------------------------------------------------------
  Parameter   Initial value   Final value   Difference    Units      Percent
--------------------------------------------------------------------------------
    Volume       163.505803    163.507825     0.002022    Angs**3      0.00
    a              5.468200      5.468223     0.000023    Angstroms    0.00
    b              5.468200      5.468223     0.000023    Angstroms    0.00
    c              5.468200      5.468223     0.000023    Angstroms    0.00
    alpha         90.000000     90.000000     0.000000    Degrees      0.00
    beta          90.000000     90.000000     0.000000    Degrees      0.00
    gamma         90.000000     90.000000     0.000000    Degrees      0.00
      1 x          0.000000      0.000000     0.000000    Fractional   0.00
      1 y          0.000000      0.000000     0.000000    Fractional   0.00
      1 z          0.000000      0.000000     0.000000    Fractional   0.00
      2 x          0.250000      0.250000     0.000000    Fractional   0.00
      2 y          0.250000      0.250000     0.000000    Fractional   0.00
      2 z          0.250000      0.250000     0.000000    Fractional   0.00
      3 x          0.000000      0.000000     0.000000    Fractional   0.00
      3 y          0.000000      0.000000     0.000000    Fractional   0.00
      3 z          0.000000      0.000000     0.000000    Fractional   0.00
      4 x          0.250000      0.250000     0.000000    Fractional   0.00
      4 y          0.250000      0.250000     0.000000    Fractional   0.00
      4 z          0.250000      0.250000     0.000000    Fractional   0.00
--------------------------------------------------------------------------------


  Distance calculation :


  Cutoff for distances  =      4.000000 Angstroms

--------------------------------------------------------------------------------
  Asymmetric unit site  Full lattice sites    No.  Distance      No.  Distance
      No.   At.No.            At.No.                (Angs)             (Angs) 
--------------------------------------------------------------------------------
       1   U     core        U     core        12    3.8666
                             U     shell       12    3.8666
                             O     core         8    2.3678
                             O     shell        8    2.3678
--------------------------------------------------------------------------------
       2   O     core        U     core         4    2.3678
                             U     shell        4    2.3678
                             O     core         6    2.7341       12    3.8666
                             O     shell        6    2.7341       12    3.8666
--------------------------------------------------------------------------------
       3   U     shell       U     core        12    3.8666
                             U     shell       12    3.8666
                             O     core         8    2.3678
                             O     shell        8    2.3678
--------------------------------------------------------------------------------
       4   O     shell       U     core         4    2.3678
                             U     shell        4    2.3678
                             O     core         6    2.7341       12    3.8666
                             O     shell        6    2.7341       12    3.8666
--------------------------------------------------------------------------------



  Born effective charge tensors : 

-------------------------------------------------------------------------------
  Atom             x           y             z
-------------------------------------------------------------------------------
   1 U     x       5.2290      0.0000     -0.0000
           y       0.0000      5.2290      0.0000
           z      -0.0000      0.0000      5.2290
-------------------------------------------------------------------------------
   2 O     x      -2.6145      0.0000      0.0000
           y       0.0000     -2.6145     -0.0000
           z       0.0000     -0.0000     -2.6145
-------------------------------------------------------------------------------




  Elastic Constant Matrix: (Units=GPa)

-------------------------------------------------------------------------------
  Indices      1         2         3         4         5         6    
-------------------------------------------------------------------------------
       1    391.4302  116.7250  116.7250    0.0000    0.0000    0.0000
       2    116.7250  391.4302  116.7250    0.0000    0.0000    0.0000
       3    116.7250  116.7250  391.4302    0.0000    0.0000    0.0000
       4      0.0000    0.0000    0.0000   58.0905    0.0000    0.0000
       5      0.0000    0.0000    0.0000    0.0000   58.0905    0.0000
       6      0.0000    0.0000    0.0000    0.0000    0.0000   58.0905
-------------------------------------------------------------------------------


  Elastic Compliance Matrix: (Units=1/GPa)

-------------------------------------------------------------------------------
  Indices      1         2         3         4         5         6    
-------------------------------------------------------------------------------
       1    0.002960 -0.000680 -0.000680 -0.000000 -0.000000 -0.000000
       2   -0.000680  0.002960 -0.000680 -0.000000 -0.000000 -0.000000
       3   -0.000680 -0.000680  0.002960 -0.000000 -0.000000 -0.000000
       4   -0.000000 -0.000000 -0.000000  0.017215 -0.000000 -0.000000
       5   -0.000000 -0.000000 -0.000000 -0.000000  0.017215 -0.000000
       6   -0.000000 -0.000000 -0.000000 -0.000000 -0.000000  0.017215
-------------------------------------------------------------------------------

  Mechanical properties :

-------------------------------------------------------------------------------
  Convention :                    Reuss         Voigt         Hill
-------------------------------------------------------------------------------
  Bulk  Modulus (GPa)     =     208.29341     208.29341     208.29341
  Shear Modulus (GPa)     =      75.52342      89.79533      82.65937
-------------------------------------------------------------------------------
  Velocity S-wave (km/s)  =       2.62389       2.86109       2.74506
  Velocity P-wave (km/s)  =       5.30736       5.46834       5.38845
-------------------------------------------------------------------------------
  Compressibility (1/GPa) =    0.00480092
-------------------------------------------------------------------------------
  Stress axis :                     x             y             z
-------------------------------------------------------------------------------
  Youngs Moduli (GPa)     =     337.80590     337.80590     337.80590
-------------------------------------------------------------------------------
  Poissons Ratio (x)      =                     0.22970       0.22970
  Poissons Ratio (y)      =       0.22970                     0.22970
  Poissons Ratio (z)      =       0.22970       0.22970
-------------------------------------------------------------------------------


  Piezoelectric Strain Matrix: (Units=C/m**2)

-------------------------------------------------------------------------------
  Indices      1         2         3         4         5         6    
-------------------------------------------------------------------------------
       x    -0.00000  -0.00000  -0.00000  -0.00000   0.00000  -0.00000
       y    -0.00000  -0.00000  -0.00000   0.00000  -0.00000  -0.00000
       z     0.00000   0.00000  -0.00000  -0.00000  -0.00000  -0.00000
-------------------------------------------------------------------------------


  Piezoelectric Stress Matrix: (Units=10**-11 C/N)

-------------------------------------------------------------------------------
  Indices      1         2         3         4         5         6    
-------------------------------------------------------------------------------
       x    -0.00000  -0.00000  -0.00000  -0.00000   0.00000  -0.00000
       y    -0.00000  -0.00000  -0.00000   0.00000  -0.00000  -0.00000
       z     0.00000   0.00000  -0.00000  -0.00000  -0.00000  -0.00000
-------------------------------------------------------------------------------


  Static dielectric constant tensor : 

-------------------------------------------------------------------------------
              x         y         z
-------------------------------------------------------------------------------
       x    24.34269   0.00000  -0.00000
       y     0.00000  24.34269  -0.00000
       z    -0.00000  -0.00000  24.34269
--------------------------------------------------------------------------------

  High frequency dielectric constant tensor : 

-------------------------------------------------------------------------------
              x         y         z
-------------------------------------------------------------------------------
       x     4.94810   0.00000   0.00000
       y     0.00000   4.94810   0.00000
       z     0.00000   0.00000   4.94810
-------------------------------------------------------------------------------

  Static refractive indices : 

-------------------------------------------------------------------------------
    1 =    4.93383      2 =    4.93383      3 =    4.93383
-------------------------------------------------------------------------------

  High frequency refractive indices : 

-------------------------------------------------------------------------------
    1 =    2.22443      2 =    2.22443      3 =    2.22443
-------------------------------------------------------------------------------


  Time to end of optimisation =       0.0240 seconds

********************************************************************************
*  Defect calculation for configuration   1 :                                  *
********************************************************************************

  Total number of defects =      1

  Total charge on defect  =  -4.00

  Defect centre is at   0.0000   0.0000   0.0000  Frac

  Region 1 radius =  15.0000      Number of ions =   2080

  Number of symmetry inequivalent region 1 ions  =     78

  Region 2 radius =  28.0000      Number of ions =  11668

  Number of symmetry inequivalent region 2a ions =    330

  Region 2a mode = 4 : screened electrostatics due to region 1 
                       neglect correction to region 1 forces from 2a
                       region 2a displacements based on defects only

  Region 2a ions will only interact with defects in region 1

  Vacancies:

--------------------------------------------------------------------------------
    Specification type     Symbol/Number         x          y          z
--------------------------------------------------------------------------------
    Fractional                               0.000000   0.000000   0.000000
--------------------------------------------------------------------------------


  Region 1 (Absolute coordinates) :

--------------------------------------------------------------------------------
   No.   Atomic       x            y             z         Charge   Occupancy
         Label      (Angs)       (Angs)        (Angs)        (e)    
--------------------------------------------------------------------------------
     1  O     c     -1.3671      -1.3671      -1.3671      2.40000    1.00000
     2  O     c     -1.3671      -1.3671       1.3671      2.40000    1.00000
     3  O     c      1.3671       1.3671       1.3671      2.40000    1.00000
     4  O     c      1.3671      -1.3671       1.3671      2.40000    1.00000
     5  O     c     -1.3671       1.3671       1.3671      2.40000    1.00000
     6  O     c     -1.3671       1.3671      -1.3671      2.40000    1.00000
     7  O     c      1.3671      -1.3671      -1.3671      2.40000    1.00000
     8  O     c      1.3671       1.3671      -1.3671      2.40000    1.00000
     9  U     c      2.7341       2.7341       0.0000     -2.51000    1.00000
    10  U     c     -2.7341      -2.7341       0.0000     -2.51000    1.00000
    11  U     c      2.7341       0.0000       2.7341     -2.51000    1.00000
    12  U     c      0.0000      -2.7341       2.7341     -2.51000    1.00000
    13  U     c     -2.7341       0.0000      -2.7341     -2.51000    1.00000
    14  U     c      0.0000       2.7341      -2.7341     -2.51000    1.00000
    15  U     c      0.0000       2.7341       2.7341     -2.51000    1.00000
    16  U     c     -2.7341       0.0000       2.7341     -2.51000    1.00000
    17  U     c     -2.7341       2.7341       0.0000     -2.51000    1.00000
    18  U     c      0.0000      -2.7341      -2.7341     -2.51000    1.00000
    19  U     c      2.7341       0.0000      -2.7341     -2.51000    1.00000
    20  U     c      2.7341      -2.7341       0.0000     -2.51000    1.00000
    21  O     c     -1.3671       1.3671      -4.1012      2.40000    1.00000
    22  O     c      1.3671      -1.3671      -4.1012      2.40000    1.00000
    23  O     c     -1.3671      -4.1012       1.3671      2.40000    1.00000
    24  O     c     -4.1012      -1.3671       1.3671      2.40000    1.00000
    25  O     c     -4.1012       1.3671      -1.3671      2.40000    1.00000
    26  O     c      1.3671      -4.1012      -1.3671      2.40000    1.00000
    27  O     c     -4.1012      -1.3671      -1.3671      2.40000    1.00000
    28  O     c      1.3671       4.1012      -1.3671      2.40000    1.00000
    29  O     c     -1.3671      -4.1012      -1.3671      2.40000    1.00000
    30  O     c      4.1012       1.3671      -1.3671      2.40000    1.00000
    31  O     c      1.3671      -4.1012       1.3671      2.40000    1.00000
    32  O     c      1.3671       1.3671      -4.1012      2.40000    1.00000
    33  O     c     -1.3671      -1.3671       4.1012      2.40000    1.00000
    34  O     c     -1.3671       4.1012      -1.3671      2.40000    1.00000
    35  O     c      4.1012      -1.3671      -1.3671      2.40000    1.00000
    36  O     c      1.3671      -1.3671       4.1012      2.40000    1.00000
    37  O     c     -1.3671       1.3671       4.1012      2.40000    1.00000
    38  O     c     -4.1012       1.3671       1.3671      2.40000    1.00000
    39  O     c      4.1012      -1.3671       1.3671      2.40000    1.00000
    40  O     c     -1.3671      -1.3671      -4.1012      2.40000    1.00000
    41  O     c      1.3671       1.3671       4.1012      2.40000    1.00000
    42  O     c     -1.3671       4.1012       1.3671      2.40000    1.00000
    43  O     c      4.1012       1.3671       1.3671      2.40000    1.00000
    44  O     c      1.3671       4.1012       1.3671      2.40000    1.00000
    45  U     c      0.0000       0.0000       5.4682     -2.51000    1.00000
    46  U     c      0.0000       5.4682       0.0000     -2.51000    1.00000
    47  U     c     -5.4682       0.0000       0.0000     -2.51000    1.00000
    48  U     c      5.4682       0.0000       0.0000     -2.51000    1.00000
    49  U     c      0.0000      -5.4682       0.0000     -2.51000    1.00000
    50  U     c      0.0000       0.0000      -5.4682     -2.51000    1.00000
    51  O     c     -4.1012      -4.1012      -1.3671      2.40000    1.00000
    52  O     c     -4.1012      -1.3671      -4.1012      2.40000    1.00000
    53  O     c     -1.3671      -4.1012      -4.1012      2.40000    1.00000
    54  O     c      1.3671      -4.1012       4.1012      2.40000    1.00000
    55  O     c      1.3671       4.1012      -4.1012      2.40000    1.00000
    56  O     c     -4.1012       1.3671       4.1012      2.40000    1.00000
    57  O     c     -4.1012       4.1012       1.3671      2.40000    1.00000
    58  O     c      4.1012       1.3671      -4.1012      2.40000    1.00000
    59  O     c      4.1012      -4.1012       1.3671      2.40000    1.00000
    60  O     c      4.1012       4.1012       1.3671      2.40000    1.00000
    61  O     c     -4.1012      -4.1012       1.3671      2.40000    1.00000
    62  O     c      4.1012       1.3671       4.1012      2.40000    1.00000
    63  O     c     -1.3671      -4.1012       4.1012      2.40000    1.00000
    64  O     c      1.3671       4.1012       4.1012      2.40000    1.00000
    65  O     c     -4.1012      -1.3671       4.1012      2.40000    1.00000
    66  O     c      4.1012       4.1012      -1.3671      2.40000    1.00000
    67  O     c      4.1012      -1.3671       4.1012      2.40000    1.00000
    68  O     c     -1.3671       4.1012       4.1012      2.40000    1.00000
    69  O     c     -4.1012       1.3671      -4.1012      2.40000    1.00000
    70  O     c     -1.3671       4.1012      -4.1012      2.40000    1.00000
    71  O     c     -4.1012       4.1012      -1.3671      2.40000    1.00000
    72  O     c      1.3671      -4.1012      -4.1012      2.40000    1.00000
    73  O     c      4.1012      -1.3671      -4.1012      2.40000    1.00000
    74  O     c      4.1012      -4.1012      -1.3671      2.40000    1.00000
    75  U     c      5.4682       2.7341       2.7341     -2.51000    1.00000
    76  U     c     -2.7341      -5.4682       2.7341     -2.51000    1.00000
    77  U     c      2.7341      -2.7341       5.4682     -2.51000    1.00000
    78  U     c      2.7341       5.4682      -2.7341     -2.51000    1.00000
    79  U     c     -5.4682      -2.7341      -2.7341     -2.51000    1.00000
    80  U     c     -2.7341       2.7341      -5.4682     -2.51000    1.00000
    81  U     c      2.7341       5.4682       2.7341     -2.51000    1.00000
    82  U     c     -5.4682      -2.7341       2.7341     -2.51000    1.00000
    83  U     c      2.7341       2.7341       5.4682     -2.51000    1.00000
    84  U     c     -2.7341      -2.7341       5.4682     -2.51000    1.00000
    85  U     c     -5.4682       2.7341      -2.7341     -2.51000    1.00000
    86  U     c     -2.7341       5.4682      -2.7341     -2.51000    1.00000
    87  U     c     -2.7341       2.7341       5.4682     -2.51000    1.00000
    88  U     c     -2.7341       5.4682       2.7341     -2.51000    1.00000
    89  U     c     -5.4682       2.7341       2.7341     -2.51000    1.00000
    90  U     c      5.4682       2.7341      -2.7341     -2.51000    1.00000
    91  U     c     -2.7341      -5.4682      -2.7341     -2.51000    1.00000
    92  U     c      5.4682      -2.7341       2.7341     -2.51000    1.00000
    93  U     c      2.7341      -5.4682       2.7341     -2.51000    1.00000
    94  U     c     -2.7341      -2.7341      -5.4682     -2.51000    1.00000
    95  U     c      2.7341       2.7341      -5.4682     -2.51000    1.00000
    96  U     c      2.7341      -2.7341      -5.4682     -2.51000    1.00000
    97  U     c      2.7341      -5.4682      -2.7341     -2.51000    1.00000
    98  U     c      5.4682      -2.7341      -2.7341     -2.51000    1.00000
    99  O     c     -6.8353      -1.3671      -1.3671      2.40000    1.00000
   100  O     c     -6.8353       1.3671       1.3671      2.40000    1.00000
   101  O     c     -1.3671      -6.8353      -1.3671      2.40000    1.00000
   102  O     c      1.3671      -6.8353       1.3671      2.40000    1.00000
   103  O     c     -1.3671      -1.3671      -6.8353      2.40000    1.00000
   104  O     c      1.3671       1.3671      -6.8353      2.40000    1.00000
   105  O     c      1.3671       1.3671       6.8353      2.40000    1.00000
   106  O     c     -1.3671      -1.3671       6.8353      2.40000    1.00000
   107  O     c      1.3671       6.8353       1.3671      2.40000    1.00000
   108  O     c     -6.8353      -1.3671       1.3671      2.40000    1.00000
   109  O     c     -6.8353       1.3671      -1.3671      2.40000    1.00000
   110  O     c      6.8353       1.3671       1.3671      2.40000    1.00000
   111  O     c     -1.3671      -6.8353       1.3671      2.40000    1.00000
   112  O     c      1.3671      -6.8353      -1.3671      2.40000    1.00000
   113  O     c      1.3671      -1.3671       6.8353      2.40000    1.00000
   114  O     c      1.3671       6.8353      -1.3671      2.40000    1.00000
   115  O     c     -1.3671       1.3671       6.8353      2.40000    1.00000
   116  O     c     -1.3671       6.8353       1.3671      2.40000    1.00000
   117  O     c      6.8353       1.3671      -1.3671      2.40000    1.00000
   118  O     c      6.8353      -1.3671       1.3671      2.40000    1.00000
   119  O     c     -1.3671       6.8353      -1.3671      2.40000    1.00000
   120  O     c     -1.3671       1.3671      -6.8353      2.40000    1.00000
   121  O     c      6.8353      -1.3671      -1.3671      2.40000    1.00000
   122  O     c      1.3671      -1.3671      -6.8353      2.40000    1.00000
   123  O     c      4.1012       4.1012      -4.1012      2.40000    1.00000
   124  O     c     -4.1012      -4.1012       4.1012      2.40000    1.00000
   125  O     c     -4.1012       4.1012      -4.1012      2.40000    1.00000
   126  O     c      4.1012      -4.1012      -4.1012      2.40000    1.00000
   127  O     c      4.1012      -4.1012       4.1012      2.40000    1.00000
   128  O     c     -4.1012      -4.1012      -4.1012      2.40000    1.00000
   129  O     c      4.1012       4.1012       4.1012      2.40000    1.00000
   130  O     c     -4.1012       4.1012       4.1012      2.40000    1.00000
   131  U     c      5.4682       5.4682       0.0000     -2.51000    1.00000
   132  U     c     -5.4682      -5.4682       0.0000     -2.51000    1.00000
   133  U     c      5.4682       0.0000       5.4682     -2.51000    1.00000
   134  U     c      0.0000      -5.4682       5.4682     -2.51000    1.00000
   135  U     c     -5.4682       0.0000      -5.4682     -2.51000    1.00000
   136  U     c      0.0000       5.4682      -5.4682     -2.51000    1.00000
   137  U     c      0.0000       5.4682       5.4682     -2.51000    1.00000
   138  U     c     -5.4682       0.0000       5.4682     -2.51000    1.00000
   139  U     c     -5.4682       5.4682       0.0000     -2.51000    1.00000
   140  U     c      0.0000      -5.4682      -5.4682     -2.51000    1.00000
   141  U     c      5.4682       0.0000      -5.4682     -2.51000    1.00000
   142  U     c      5.4682      -5.4682       0.0000     -2.51000    1.00000
   143  O     c     -6.8353       1.3671      -4.1012      2.40000    1.00000
   144  O     c      1.3671      -6.8353      -4.1012      2.40000    1.00000
   145  O     c     -4.1012      -6.8353       1.3671      2.40000    1.00000
   146  O     c     -1.3671      -6.8353       4.1012      2.40000    1.00000
   147  O     c     -4.1012       1.3671      -6.8353      2.40000    1.00000
   148  O     c     -1.3671       4.1012      -6.8353      2.40000    1.00000
   149  O     c     -6.8353      -4.1012       1.3671      2.40000    1.00000
   150  O     c     -6.8353      -1.3671       4.1012      2.40000    1.00000
   151  O     c     -6.8353       4.1012      -1.3671      2.40000    1.00000
   152  O     c      1.3671      -4.1012      -6.8353      2.40000    1.00000
   153  O     c      4.1012      -1.3671      -6.8353      2.40000    1.00000
   154  O     c      4.1012      -6.8353      -1.3671      2.40000    1.00000
   155  O     c      4.1012      -1.3671       6.8353      2.40000    1.00000
   156  O     c      4.1012       6.8353      -1.3671      2.40000    1.00000
   157  O     c     -6.8353      -1.3671      -4.1012      2.40000    1.00000
   158  O     c      1.3671       6.8353      -4.1012      2.40000    1.00000
   159  O     c     -1.3671       4.1012       6.8353      2.40000    1.00000
   160  O     c      6.8353       4.1012      -1.3671      2.40000    1.00000
   161  O     c      6.8353      -1.3671       4.1012      2.40000    1.00000
   162  O     c      1.3671      -6.8353       4.1012      2.40000    1.00000
   163  O     c      1.3671       4.1012      -6.8353      2.40000    1.00000
   164  O     c     -1.3671      -6.8353      -4.1012      2.40000    1.00000
   165  O     c      6.8353       1.3671      -4.1012      2.40000    1.00000
   166  O     c      4.1012       1.3671      -6.8353      2.40000    1.00000
   167  O     c      6.8353       1.3671       4.1012      2.40000    1.00000
   168  O     c     -1.3671      -4.1012       6.8353      2.40000    1.00000
   169  O     c     -1.3671       6.8353      -4.1012      2.40000    1.00000
   170  O     c      1.3671       6.8353       4.1012      2.40000    1.00000
   171  O     c     -4.1012      -1.3671       6.8353      2.40000    1.00000
   172  O     c     -4.1012       6.8353      -1.3671      2.40000    1.00000
   173  O     c      6.8353      -1.3671      -4.1012      2.40000    1.00000
   174  O     c      6.8353      -4.1012      -1.3671      2.40000    1.00000
   175  O     c      1.3671      -4.1012       6.8353      2.40000    1.00000
   176  O     c     -6.8353      -4.1012      -1.3671      2.40000    1.00000
   177  O     c     -4.1012       1.3671       6.8353      2.40000    1.00000
   178  O     c     -1.3671       6.8353       4.1012      2.40000    1.00000
   179  O     c     -6.8353       1.3671       4.1012      2.40000    1.00000
   180  O     c     -6.8353       4.1012       1.3671      2.40000    1.00000
   181  O     c     -4.1012       6.8353       1.3671      2.40000    1.00000
   182  O     c     -4.1012      -6.8353      -1.3671      2.40000    1.00000
   183  O     c     -4.1012      -1.3671      -6.8353      2.40000    1.00000
   184  O     c      4.1012      -6.8353       1.3671      2.40000    1.00000
   185  O     c      6.8353      -4.1012       1.3671      2.40000    1.00000
   186  O     c     -1.3671      -4.1012      -6.8353      2.40000    1.00000
   187  O     c      6.8353       4.1012       1.3671      2.40000    1.00000
   188  O     c      4.1012       6.8353       1.3671      2.40000    1.00000
   189  O     c      4.1012       1.3671       6.8353      2.40000    1.00000
   190  O     c      1.3671       4.1012       6.8353      2.40000    1.00000
   191  U     c      2.7341       0.0000       8.2023     -2.51000    1.00000
   192  U     c      0.0000      -2.7341       8.2023     -2.51000    1.00000
   193  U     c      2.7341       8.2023       0.0000     -2.51000    1.00000
   194  U     c     -8.2023      -2.7341       0.0000     -2.51000    1.00000
   195  U     c      0.0000       8.2023      -2.7341     -2.51000    1.00000
   196  U     c     -8.2023       0.0000      -2.7341     -2.51000    1.00000
   197  U     c      0.0000       2.7341       8.2023     -2.51000    1.00000
   198  U     c     -2.7341       0.0000       8.2023     -2.51000    1.00000
   199  U     c      0.0000       8.2023       2.7341     -2.51000    1.00000
   200  U     c     -8.2023       0.0000       2.7341     -2.51000    1.00000
   201  U     c     -2.7341       8.2023       0.0000     -2.51000    1.00000
   202  U     c     -8.2023       2.7341       0.0000     -2.51000    1.00000
   203  U     c      8.2023       2.7341       0.0000     -2.51000    1.00000
   204  U     c     -2.7341      -8.2023       0.0000     -2.51000    1.00000
   205  U     c      8.2023       0.0000       2.7341     -2.51000    1.00000
   206  U     c      0.0000      -8.2023       2.7341     -2.51000    1.00000
   207  U     c     -2.7341       0.0000      -8.2023     -2.51000    1.00000
   208  U     c      0.0000       2.7341      -8.2023     -2.51000    1.00000
   209  U     c      8.2023       0.0000      -2.7341     -2.51000    1.00000
   210  U     c      0.0000      -8.2023      -2.7341     -2.51000    1.00000
   211  U     c      8.2023      -2.7341       0.0000     -2.51000    1.00000
   212  U     c      2.7341      -8.2023       0.0000     -2.51000    1.00000
   213  U     c      0.0000      -2.7341      -8.2023     -2.51000    1.00000
   214  U     c      2.7341       0.0000      -8.2023     -2.51000    1.00000
   215  O     c     -6.8353      -4.1012      -4.1012      2.40000    1.00000
   216  O     c     -4.1012      -6.8353      -4.1012      2.40000    1.00000
   217  O     c     -4.1012      -4.1012      -6.8353      2.40000    1.00000
   218  O     c     -6.8353       4.1012      -4.1012      2.40000    1.00000
   219  O     c     -6.8353       4.1012       4.1012      2.40000    1.00000
   220  O     c      4.1012      -6.8353       4.1012      2.40000    1.00000
   221  O     c      4.1012       4.1012      -6.8353      2.40000    1.00000
   222  O     c      6.8353       4.1012       4.1012      2.40000    1.00000
   223  O     c     -4.1012      -6.8353       4.1012      2.40000    1.00000
   224  O     c     -4.1012       4.1012      -6.8353      2.40000    1.00000
   225  O     c      4.1012       6.8353       4.1012      2.40000    1.00000
   226  O     c     -6.8353      -4.1012       4.1012      2.40000    1.00000
   227  O     c      4.1012       4.1012       6.8353      2.40000    1.00000
   228  O     c     -4.1012      -4.1012       6.8353      2.40000    1.00000
   229  O     c     -4.1012       6.8353      -4.1012      2.40000    1.00000
   230  O     c      4.1012      -4.1012      -6.8353      2.40000    1.00000
   231  O     c      4.1012      -6.8353      -4.1012      2.40000    1.00000
   232  O     c      6.8353      -4.1012      -4.1012      2.40000    1.00000
   233  O     c      4.1012      -4.1012       6.8353      2.40000    1.00000
   234  O     c      4.1012       6.8353      -4.1012      2.40000    1.00000
   235  O     c     -4.1012       4.1012       6.8353      2.40000    1.00000
   236  O     c     -4.1012       6.8353       4.1012      2.40000    1.00000
   237  O     c      6.8353       4.1012      -4.1012      2.40000    1.00000
   238  O     c      6.8353      -4.1012       4.1012      2.40000    1.00000
   239  U     c      5.4682       5.4682       5.4682     -2.51000    1.00000
   240  U     c     -5.4682      -5.4682       5.4682     -2.51000    1.00000
   241  U     c      5.4682       5.4682      -5.4682     -2.51000    1.00000
   242  U     c     -5.4682      -5.4682      -5.4682     -2.51000    1.00000
   243  U     c     -5.4682       5.4682      -5.4682     -2.51000    1.00000
   244  U     c     -5.4682       5.4682       5.4682     -2.51000    1.00000
   245  U     c      5.4682      -5.4682       5.4682     -2.51000    1.00000
   246  U     c      5.4682      -5.4682      -5.4682     -2.51000    1.00000
   247  O     c     -1.3671       1.3671      -9.5694      2.40000    1.00000
   248  O     c      1.3671      -9.5694      -1.3671      2.40000    1.00000
   249  O     c      1.3671      -1.3671      -9.5694      2.40000    1.00000
   250  O     c     -9.5694      -1.3671       1.3671      2.40000    1.00000
   251  O     c     -9.5694       1.3671      -1.3671      2.40000    1.00000
   252  O     c     -1.3671      -9.5694       1.3671      2.40000    1.00000
   253  O     c      9.5694      -1.3671      -1.3671      2.40000    1.00000
   254  O     c      1.3671      -1.3671       9.5694      2.40000    1.00000
   255  O     c      1.3671       9.5694      -1.3671      2.40000    1.00000
   256  O     c     -1.3671       1.3671       9.5694      2.40000    1.00000
   257  O     c      9.5694       1.3671      -1.3671      2.40000    1.00000
   258  O     c      1.3671       1.3671      -9.5694      2.40000    1.00000
   259  O     c      1.3671       1.3671       9.5694      2.40000    1.00000
   260  O     c     -1.3671      -1.3671       9.5694      2.40000    1.00000
   261  O     c     -1.3671       9.5694      -1.3671      2.40000    1.00000
   262  O     c     -9.5694      -1.3671      -1.3671      2.40000    1.00000
   263  O     c     -1.3671       9.5694       1.3671      2.40000    1.00000
   264  O     c     -9.5694       1.3671       1.3671      2.40000    1.00000
   265  O     c     -1.3671      -9.5694      -1.3671      2.40000    1.00000
   266  O     c      9.5694      -1.3671       1.3671      2.40000    1.00000
   267  O     c      1.3671      -9.5694       1.3671      2.40000    1.00000
   268  O     c     -1.3671      -1.3671      -9.5694      2.40000    1.00000
   269  O     c      1.3671       9.5694       1.3671      2.40000    1.00000
   270  O     c      9.5694       1.3671       1.3671      2.40000    1.00000
   271  O     c     -6.8353      -6.8353      -1.3671      2.40000    1.00000
   272  O     c     -6.8353      -1.3671      -6.8353      2.40000    1.00000
   273  O     c     -1.3671      -6.8353      -6.8353      2.40000    1.00000
   274  O     c      1.3671       6.8353      -6.8353      2.40000    1.00000
   275  O     c      6.8353       1.3671      -6.8353      2.40000    1.00000
   276  O     c      6.8353       1.3671       6.8353      2.40000    1.00000
   277  O     c     -1.3671      -6.8353       6.8353      2.40000    1.00000
   278  O     c     -6.8353       1.3671      -6.8353      2.40000    1.00000
   279  O     c      1.3671       6.8353       6.8353      2.40000    1.00000
   280  O     c     -6.8353      -1.3671       6.8353      2.40000    1.00000
   281  O     c     -6.8353       6.8353      -1.3671      2.40000    1.00000
   282  O     c      1.3671      -6.8353      -6.8353      2.40000    1.00000
   283  O     c      6.8353      -1.3671       6.8353      2.40000    1.00000
   284  O     c      1.3671      -6.8353       6.8353      2.40000    1.00000
   285  O     c     -1.3671       6.8353       6.8353      2.40000    1.00000
   286  O     c     -6.8353       1.3671       6.8353      2.40000    1.00000
   287  O     c     -6.8353       6.8353       1.3671      2.40000    1.00000
   288  O     c      6.8353      -6.8353       1.3671      2.40000    1.00000
   289  O     c      6.8353       6.8353       1.3671      2.40000    1.00000
   290  O     c     -6.8353      -6.8353       1.3671      2.40000    1.00000
   291  O     c     -1.3671       6.8353      -6.8353      2.40000    1.00000
   292  O     c      6.8353      -1.3671      -6.8353      2.40000    1.00000
   293  O     c      6.8353      -6.8353      -1.3671      2.40000    1.00000
   294  O     c      6.8353       6.8353      -1.3671      2.40000    1.00000
   295  U     c      8.2023       5.4682       2.7341     -2.51000    1.00000
   296  U     c     -5.4682      -8.2023       2.7341     -2.51000    1.00000
   297  U     c      8.2023       2.7341       5.4682     -2.51000    1.00000
   298  U     c     -2.7341      -8.2023       5.4682     -2.51000    1.00000
   299  U     c      5.4682      -2.7341       8.2023     -2.51000    1.00000
   300  U     c      2.7341      -5.4682       8.2023     -2.51000    1.00000
   301  U     c      5.4682       8.2023      -2.7341     -2.51000    1.00000
   302  U     c     -8.2023      -5.4682      -2.7341     -2.51000    1.00000
   303  U     c      2.7341       8.2023      -5.4682     -2.51000    1.00000
   304  U     c     -8.2023      -2.7341      -5.4682     -2.51000    1.00000
   305  U     c     -5.4682       2.7341      -8.2023     -2.51000    1.00000
   306  U     c     -2.7341       5.4682      -8.2023     -2.51000    1.00000
   307  U     c      5.4682       8.2023       2.7341     -2.51000    1.00000
   308  U     c     -8.2023      -5.4682       2.7341     -2.51000    1.00000
   309  U     c      5.4682       2.7341       8.2023     -2.51000    1.00000
   310  U     c     -2.7341      -5.4682       8.2023     -2.51000    1.00000
   311  U     c     -8.2023       2.7341      -5.4682     -2.51000    1.00000
   312  U     c      2.7341       8.2023       5.4682     -2.51000    1.00000
   313  U     c     -8.2023      -2.7341       5.4682     -2.51000    1.00000
   314  U     c      2.7341       5.4682       8.2023     -2.51000    1.00000
   315  U     c     -5.4682      -2.7341       8.2023     -2.51000    1.00000
   316  U     c     -8.2023       5.4682      -2.7341     -2.51000    1.00000
   317  U     c     -5.4682       8.2023      -2.7341     -2.51000    1.00000
   318  U     c     -2.7341       5.4682       8.2023     -2.51000    1.00000
   319  U     c     -5.4682       2.7341       8.2023     -2.51000    1.00000
   320  U     c     -2.7341       8.2023       5.4682     -2.51000    1.00000
   321  U     c      8.2023       5.4682      -2.7341     -2.51000    1.00000
   322  U     c     -5.4682      -8.2023      -2.7341     -2.51000    1.00000
   323  U     c      8.2023      -2.7341       5.4682     -2.51000    1.00000
   324  U     c     -5.4682      -2.7341      -8.2023     -2.51000    1.00000
   325  U     c      2.7341       5.4682      -8.2023     -2.51000    1.00000
   326  U     c      8.2023       2.7341      -5.4682     -2.51000    1.00000
   327  U     c     -2.7341      -8.2023      -5.4682     -2.51000    1.00000
   328  U     c      8.2023      -5.4682       2.7341     -2.51000    1.00000
   329  U     c      5.4682      -8.2023       2.7341     -2.51000    1.00000
   330  U     c     -2.7341      -5.4682      -8.2023     -2.51000    1.00000
   331  U     c      5.4682       2.7341      -8.2023     -2.51000    1.00000
   332  U     c      2.7341      -5.4682      -8.2023     -2.51000    1.00000
   333  U     c      5.4682      -2.7341      -8.2023     -2.51000    1.00000
   334  U     c      2.7341      -8.2023      -5.4682     -2.51000    1.00000
   335  U     c     -2.7341       8.2023      -5.4682     -2.51000    1.00000
   336  U     c     -8.2023       2.7341       5.4682     -2.51000    1.00000
   337  U     c     -5.4682       8.2023       2.7341     -2.51000    1.00000
   338  U     c     -8.2023       5.4682       2.7341     -2.51000    1.00000
   339  U     c      2.7341      -8.2023       5.4682     -2.51000    1.00000
   340  U     c      8.2023      -2.7341      -5.4682     -2.51000    1.00000
   341  U     c      5.4682      -8.2023      -2.7341     -2.51000    1.00000
   342  U     c      8.2023      -5.4682      -2.7341     -2.51000    1.00000
   343  O     c     -4.1012      -9.5694      -1.3671      2.40000    1.00000
   344  O     c     -9.5694      -4.1012      -1.3671      2.40000    1.00000
   345  O     c     -9.5694      -1.3671      -4.1012      2.40000    1.00000
   346  O     c     -4.1012      -1.3671      -9.5694      2.40000    1.00000
   347  O     c     -1.3671      -9.5694      -4.1012      2.40000    1.00000
   348  O     c     -1.3671      -4.1012      -9.5694      2.40000    1.00000
   349  O     c     -9.5694       1.3671       4.1012      2.40000    1.00000
   350  O     c     -9.5694       4.1012       1.3671      2.40000    1.00000
   351  O     c      1.3671      -9.5694       4.1012      2.40000    1.00000
   352  O     c      1.3671       4.1012      -9.5694      2.40000    1.00000
   353  O     c      4.1012      -9.5694       1.3671      2.40000    1.00000
   354  O     c      4.1012       1.3671      -9.5694      2.40000    1.00000
   355  O     c      4.1012       1.3671       9.5694      2.40000    1.00000
   356  O     c     -1.3671      -4.1012       9.5694      2.40000    1.00000
   357  O     c      4.1012       9.5694       1.3671      2.40000    1.00000
   358  O     c     -9.5694       1.3671      -4.1012      2.40000    1.00000
   359  O     c     -1.3671       9.5694      -4.1012      2.40000    1.00000
   360  O     c      1.3671       4.1012       9.5694      2.40000    1.00000
   361  O     c     -4.1012      -1.3671       9.5694      2.40000    1.00000
   362  O     c     -9.5694       4.1012      -1.3671      2.40000    1.00000
   363  O     c     -4.1012       9.5694      -1.3671      2.40000    1.00000
   364  O     c      9.5694       4.1012       1.3671      2.40000    1.00000
   365  O     c     -1.3671       4.1012      -9.5694      2.40000    1.00000
   366  O     c      4.1012      -1.3671      -9.5694      2.40000    1.00000
   367  O     c      1.3671      -4.1012       9.5694      2.40000    1.00000
   368  O     c      1.3671       9.5694      -4.1012      2.40000    1.00000
   369  O     c     -4.1012       1.3671       9.5694      2.40000    1.00000
   370  O     c     -1.3671       9.5694       4.1012      2.40000    1.00000
   371  O     c     -4.1012       9.5694       1.3671      2.40000    1.00000
   372  O     c      9.5694       4.1012      -1.3671      2.40000    1.00000
   373  O     c      9.5694      -1.3671       4.1012      2.40000    1.00000
   374  O     c      9.5694       1.3671      -4.1012      2.40000    1.00000
   375  O     c      9.5694      -4.1012       1.3671      2.40000    1.00000
   376  O     c     -9.5694      -4.1012       1.3671      2.40000    1.00000
   377  O     c      1.3671       9.5694       4.1012      2.40000    1.00000
   378  O     c     -9.5694      -1.3671       4.1012      2.40000    1.00000
   379  O     c     -4.1012      -9.5694       1.3671      2.40000    1.00000
   380  O     c      9.5694       1.3671       4.1012      2.40000    1.00000
   381  O     c     -1.3671      -9.5694       4.1012      2.40000    1.00000
   382  O     c     -4.1012       1.3671      -9.5694      2.40000    1.00000
   383  O     c      1.3671      -9.5694      -4.1012      2.40000    1.00000
   384  O     c      9.5694      -1.3671      -4.1012      2.40000    1.00000
   385  O     c      4.1012      -9.5694      -1.3671      2.40000    1.00000
   386  O     c      9.5694      -4.1012      -1.3671      2.40000    1.00000
   387  O     c      1.3671      -4.1012      -9.5694      2.40000    1.00000
   388  O     c      4.1012      -1.3671       9.5694      2.40000    1.00000
   389  O     c      4.1012       9.5694      -1.3671      2.40000    1.00000
   390  O     c     -1.3671       4.1012       9.5694      2.40000    1.00000
   391  O     c      6.8353       6.8353      -4.1012      2.40000    1.00000
   392  O     c     -6.8353      -6.8353       4.1012      2.40000    1.00000
   393  O     c     -6.8353       4.1012      -6.8353      2.40000    1.00000
   394  O     c      4.1012      -6.8353      -6.8353      2.40000    1.00000
   395  O     c      4.1012       6.8353      -6.8353      2.40000    1.00000
   396  O     c      6.8353       4.1012      -6.8353      2.40000    1.00000
   397  O     c     -4.1012      -6.8353       6.8353      2.40000    1.00000
   398  O     c     -4.1012       6.8353      -6.8353      2.40000    1.00000
   399  O     c     -6.8353      -4.1012       6.8353      2.40000    1.00000
   400  O     c     -6.8353       6.8353      -4.1012      2.40000    1.00000
   401  O     c      6.8353      -4.1012      -6.8353      2.40000    1.00000
   402  O     c      6.8353      -6.8353      -4.1012      2.40000    1.00000
   403  O     c      6.8353      -6.8353       4.1012      2.40000    1.00000
   404  O     c     -4.1012       6.8353       6.8353      2.40000    1.00000
   405  O     c     -6.8353       4.1012       6.8353      2.40000    1.00000
   406  O     c     -6.8353       6.8353       4.1012      2.40000    1.00000
   407  O     c      6.8353      -4.1012       6.8353      2.40000    1.00000
   408  O     c      4.1012      -6.8353       6.8353      2.40000    1.00000
   409  O     c     -6.8353      -6.8353      -4.1012      2.40000    1.00000
   410  O     c     -6.8353      -4.1012      -6.8353      2.40000    1.00000
   411  O     c     -4.1012      -6.8353      -6.8353      2.40000    1.00000
   412  O     c      6.8353       6.8353       4.1012      2.40000    1.00000
   413  O     c      6.8353       4.1012       6.8353      2.40000    1.00000
   414  O     c      4.1012       6.8353       6.8353      2.40000    1.00000
   415  U     c      0.0000       0.0000      10.9364     -2.51000    1.00000
   416  U     c      0.0000      10.9364       0.0000     -2.51000    1.00000
   417  U     c    -10.9364       0.0000       0.0000     -2.51000    1.00000
   418  U     c     10.9364       0.0000       0.0000     -2.51000    1.00000
   419  U     c      0.0000     -10.9364       0.0000     -2.51000    1.00000
   420  U     c      0.0000       0.0000     -10.9364     -2.51000    1.00000
   421  O     c     -4.1012      -9.5694       4.1012      2.40000    1.00000
   422  O     c     -4.1012       4.1012      -9.5694      2.40000    1.00000
   423  O     c     -9.5694      -4.1012       4.1012      2.40000    1.00000
   424  O     c     -9.5694       4.1012      -4.1012      2.40000    1.00000
   425  O     c      4.1012      -4.1012      -9.5694      2.40000    1.00000
   426  O     c      4.1012      -9.5694      -4.1012      2.40000    1.00000
   427  O     c      4.1012       4.1012      -9.5694      2.40000    1.00000
   428  O     c     -4.1012      -4.1012       9.5694      2.40000    1.00000
   429  O     c     -4.1012       9.5694      -4.1012      2.40000    1.00000
   430  O     c      9.5694      -4.1012      -4.1012      2.40000    1.00000
   431  O     c      4.1012      -4.1012       9.5694      2.40000    1.00000
   432  O     c      4.1012       9.5694      -4.1012      2.40000    1.00000
   433  O     c     -9.5694      -4.1012      -4.1012      2.40000    1.00000
   434  O     c     -4.1012       4.1012       9.5694      2.40000    1.00000
   435  O     c      9.5694       4.1012      -4.1012      2.40000    1.00000
   436  O     c     -4.1012      -9.5694      -4.1012      2.40000    1.00000
   437  O     c      9.5694      -4.1012       4.1012      2.40000    1.00000
   438  O     c      4.1012      -9.5694       4.1012      2.40000    1.00000
   439  O     c      9.5694       4.1012       4.1012      2.40000    1.00000
   440  O     c      4.1012       9.5694       4.1012      2.40000    1.00000
   441  O     c      4.1012       4.1012       9.5694      2.40000    1.00000
   442  O     c     -4.1012       9.5694       4.1012      2.40000    1.00000
   443  O     c     -9.5694       4.1012       4.1012      2.40000    1.00000
   444  O     c     -4.1012      -4.1012      -9.5694      2.40000    1.00000
   445  U     c      8.2023       8.2023       0.0000     -2.51000    1.00000
   446  U     c     -8.2023      -8.2023       0.0000     -2.51000    1.00000
   447  U     c      8.2023       0.0000       8.2023     -2.51000    1.00000
   448  U     c      0.0000      -8.2023       8.2023     -2.51000    1.00000
   449  U     c     -8.2023       0.0000      -8.2023     -2.51000    1.00000
   450  U     c     -0.0000       8.2023      -8.2023     -2.51000    1.00000
   451  U     c      0.0000       8.2023       8.2023     -2.51000    1.00000
   452  U     c     -8.2023       0.0000       8.2023     -2.51000    1.00000
   453  U     c     -8.2023       8.2023       0.0000     -2.51000    1.00000
   454  U     c      0.0000      -8.2023      -8.2023     -2.51000    1.00000
   455  U     c      8.2023      -0.0000      -8.2023     -2.51000    1.00000
   456  U     c      8.2023      -8.2023      -0.0000     -2.51000    1.00000
   457  U     c      2.7341      -2.7341      10.9364     -2.51000    1.00000
   458  U     c      2.7341      10.9364      -2.7341     -2.51000    1.00000
   459  U     c    -10.9364      -2.7341      -2.7341     -2.51000    1.00000
   460  U     c      2.7341       2.7341      10.9364     -2.51000    1.00000
   461  U     c     -2.7341      -2.7341      10.9364     -2.51000    1.00000
   462  U     c      2.7341      10.9364       2.7341     -2.51000    1.00000
   463  U     c    -10.9364      -2.7341       2.7341     -2.51000    1.00000
   464  U     c     -2.7341      10.9364      -2.7341     -2.51000    1.00000
   465  U     c    -10.9364       2.7341      -2.7341     -2.51000    1.00000
   466  U     c     -2.7341       2.7341      10.9364     -2.51000    1.00000
   467  U     c     -2.7341      10.9364       2.7341     -2.51000    1.00000
   468  U     c    -10.9364       2.7341       2.7341     -2.51000    1.00000
   469  U     c     10.9364       2.7341       2.7341     -2.51000    1.00000
   470  U     c     -2.7341     -10.9364       2.7341     -2.51000    1.00000
   471  U     c     -2.7341       2.7341     -10.9364     -2.51000    1.00000
   472  U     c     10.9364       2.7341      -2.7341     -2.51000    1.00000
   473  U     c     -2.7341     -10.9364      -2.7341     -2.51000    1.00000
   474  U     c     10.9364      -2.7341       2.7341     -2.51000    1.00000
   475  U     c      2.7341     -10.9364       2.7341     -2.51000    1.00000
   476  U     c     -2.7341      -2.7341     -10.9364     -2.51000    1.00000
   477  U     c      2.7341       2.7341     -10.9364     -2.51000    1.00000
   478  U     c     10.9364      -2.7341      -2.7341     -2.51000    1.00000
   479  U     c      2.7341     -10.9364      -2.7341     -2.51000    1.00000
   480  U     c      2.7341      -2.7341     -10.9364     -2.51000    1.00000
   481  O     c     -6.8353       1.3671      -9.5694      2.40000    1.00000
   482  O     c     -9.5694       1.3671      -6.8353      2.40000    1.00000
   483  O     c      1.3671      -6.8353      -9.5694      2.40000    1.00000
   484  O     c      1.3671      -9.5694      -6.8353      2.40000    1.00000
   485  O     c     -6.8353      -9.5694       1.3671      2.40000    1.00000
   486  O     c     -1.3671      -9.5694       6.8353      2.40000    1.00000
   487  O     c     -1.3671       6.8353      -9.5694      2.40000    1.00000
   488  O     c     -9.5694      -6.8353       1.3671      2.40000    1.00000
   489  O     c     -9.5694      -1.3671       6.8353      2.40000    1.00000
   490  O     c     -9.5694       6.8353      -1.3671      2.40000    1.00000
   491  O     c      6.8353      -1.3671      -9.5694      2.40000    1.00000
   492  O     c      6.8353      -9.5694      -1.3671      2.40000    1.00000
   493  O     c      6.8353      -1.3671       9.5694      2.40000    1.00000
   494  O     c      6.8353       9.5694      -1.3671      2.40000    1.00000
   495  O     c      1.3671       9.5694      -6.8353      2.40000    1.00000
   496  O     c     -1.3671       6.8353       9.5694      2.40000    1.00000
   497  O     c      9.5694       6.8353      -1.3671      2.40000    1.00000
   498  O     c     -6.8353      -1.3671      -9.5694      2.40000    1.00000
   499  O     c      1.3671       6.8353      -9.5694      2.40000    1.00000
   500  O     c      9.5694       1.3671      -6.8353      2.40000    1.00000
   501  O     c     -1.3671      -6.8353      -9.5694      2.40000    1.00000
   502  O     c      6.8353       1.3671      -9.5694      2.40000    1.00000
   503  O     c      6.8353       1.3671       9.5694      2.40000    1.00000
   504  O     c     -1.3671      -6.8353       9.5694      2.40000    1.00000
   505  O     c     -1.3671       9.5694      -6.8353      2.40000    1.00000
   506  O     c      1.3671       6.8353       9.5694      2.40000    1.00000
   507  O     c     -6.8353      -1.3671       9.5694      2.40000    1.00000
   508  O     c     -6.8353       9.5694      -1.3671      2.40000    1.00000
   509  O     c      9.5694      -1.3671      -6.8353      2.40000    1.00000
   510  O     c      9.5694      -6.8353      -1.3671      2.40000    1.00000
   511  O     c      1.3671      -6.8353       9.5694      2.40000    1.00000
   512  O     c     -9.5694      -6.8353      -1.3671      2.40000    1.00000
   513  O     c     -9.5694      -1.3671      -6.8353      2.40000    1.00000
   514  O     c     -6.8353       1.3671       9.5694      2.40000    1.00000
   515  O     c     -1.3671       9.5694       6.8353      2.40000    1.00000
   516  O     c     -9.5694       1.3671       6.8353      2.40000    1.00000
   517  O     c     -9.5694       6.8353       1.3671      2.40000    1.00000
   518  O     c     -6.8353       9.5694       1.3671      2.40000    1.00000
   519  O     c     -6.8353      -9.5694      -1.3671      2.40000    1.00000
   520  O     c      9.5694      -1.3671       6.8353      2.40000    1.00000
   521  O     c      1.3671      -9.5694       6.8353      2.40000    1.00000
   522  O     c     -1.3671      -9.5694      -6.8353      2.40000    1.00000
   523  O     c      6.8353      -9.5694       1.3671      2.40000    1.00000
   524  O     c      9.5694      -6.8353       1.3671      2.40000    1.00000
   525  O     c      9.5694       6.8353       1.3671      2.40000    1.00000
   526  O     c      9.5694       1.3671       6.8353      2.40000    1.00000
   527  O     c      6.8353       9.5694       1.3671      2.40000    1.00000
   528  O     c      1.3671       9.5694       6.8353      2.40000    1.00000
   529  O     c     -6.8353      -6.8353      -6.8353      2.40000    1.00000
   530  O     c     -6.8353       6.8353      -6.8353      2.40000    1.00000
   531  O     c     -6.8353       6.8353       6.8353      2.40000    1.00000
   532  O     c      6.8353      -6.8353       6.8353      2.40000    1.00000
   533  O     c      6.8353       6.8353      -6.8353      2.40000    1.00000
   534  O     c      6.8353       6.8353       6.8353      2.40000    1.00000
   535  O     c     -6.8353      -6.8353       6.8353      2.40000    1.00000
   536  O     c      6.8353      -6.8353      -6.8353      2.40000    1.00000
   537  U     c      0.0000      -5.4682      10.9364     -2.51000    1.00000
   538  U     c      5.4682      10.9364       0.0000     -2.51000    1.00000
   539  U     c    -10.9364      -5.4682       0.0000     -2.51000    1.00000
   540  U     c     -0.0000      10.9364      -5.4682     -2.51000    1.00000
   541  U     c    -10.9364       0.0000      -5.4682     -2.51000    1.00000
   542  U     c     -5.4682       0.0000      10.9364     -2.51000    1.00000
   543  U     c     10.9364       5.4682       0.0000     -2.51000    1.00000
   544  U     c     -5.4682     -10.9364       0.0000     -2.51000    1.00000
   545  U     c     10.9364       0.0000       5.4682     -2.51000    1.00000
   546  U     c      0.0000     -10.9364       5.4682     -2.51000    1.00000
   547  U     c     -0.0000       5.4682     -10.9364     -2.51000    1.00000
   548  U     c      5.4682      -0.0000     -10.9364     -2.51000    1.00000
   549  U     c      5.4682       0.0000      10.9364     -2.51000    1.00000
   550  U     c      0.0000       5.4682      10.9364     -2.51000    1.00000
   551  U     c      0.0000      10.9364       5.4682     -2.51000    1.00000
   552  U     c    -10.9364       0.0000       5.4682     -2.51000    1.00000
   553  U     c     -5.4682      10.9364       0.0000     -2.51000    1.00000
   554  U     c    -10.9364       5.4682       0.0000     -2.51000    1.00000
   555  U     c     -5.4682       0.0000     -10.9364     -2.51000    1.00000
   556  U     c     10.9364      -0.0000      -5.4682     -2.51000    1.00000
   557  U     c      0.0000     -10.9364      -5.4682     -2.51000    1.00000
   558  U     c     10.9364      -5.4682      -0.0000     -2.51000    1.00000
   559  U     c      5.4682     -10.9364      -0.0000     -2.51000    1.00000
   560  U     c      0.0000      -5.4682     -10.9364     -2.51000    1.00000
   561  O     c     -9.5694      -4.1012      -6.8353      2.40000    1.00000
   562  O     c     -6.8353      -4.1012      -9.5694      2.40000    1.00000
   563  O     c     -4.1012      -9.5694      -6.8353      2.40000    1.00000
   564  O     c     -4.1012      -6.8353      -9.5694      2.40000    1.00000
   565  O     c     -9.5694      -6.8353      -4.1012      2.40000    1.00000
   566  O     c     -6.8353      -9.5694      -4.1012      2.40000    1.00000
   567  O     c     -9.5694       4.1012      -6.8353      2.40000    1.00000
   568  O     c     -4.1012       9.5694      -6.8353      2.40000    1.00000
   569  O     c      4.1012      -6.8353       9.5694      2.40000    1.00000
   570  O     c      4.1012       9.5694      -6.8353      2.40000    1.00000
   571  O     c     -6.8353       4.1012       9.5694      2.40000    1.00000
   572  O     c     -9.5694       4.1012       6.8353      2.40000    1.00000
   573  O     c     -6.8353       9.5694       4.1012      2.40000    1.00000
   574  O     c     -9.5694       6.8353       4.1012      2.40000    1.00000
   575  O     c      4.1012      -9.5694       6.8353      2.40000    1.00000
   576  O     c      4.1012       6.8353      -9.5694      2.40000    1.00000
   577  O     c      9.5694       4.1012      -6.8353      2.40000    1.00000
   578  O     c      9.5694      -6.8353       4.1012      2.40000    1.00000
   579  O     c      6.8353      -9.5694       4.1012      2.40000    1.00000
   580  O     c      6.8353       4.1012      -9.5694      2.40000    1.00000
   581  O     c      9.5694       6.8353       4.1012      2.40000    1.00000
   582  O     c     -6.8353      -9.5694       4.1012      2.40000    1.00000
   583  O     c      9.5694       4.1012       6.8353      2.40000    1.00000
   584  O     c     -4.1012      -9.5694       6.8353      2.40000    1.00000
   585  O     c     -6.8353       4.1012      -9.5694      2.40000    1.00000
   586  O     c     -4.1012       6.8353      -9.5694      2.40000    1.00000
   587  O     c      6.8353       9.5694       4.1012      2.40000    1.00000
   588  O     c     -9.5694      -6.8353       4.1012      2.40000    1.00000
   589  O     c      6.8353       4.1012       9.5694      2.40000    1.00000
   590  O     c     -4.1012      -6.8353       9.5694      2.40000    1.00000
   591  O     c      4.1012       9.5694       6.8353      2.40000    1.00000
   592  O     c     -9.5694      -4.1012       6.8353      2.40000    1.00000
   593  O     c      4.1012       6.8353       9.5694      2.40000    1.00000
   594  O     c     -6.8353      -4.1012       9.5694      2.40000    1.00000
   595  O     c     -9.5694       6.8353      -4.1012      2.40000    1.00000
   596  O     c     -6.8353       9.5694      -4.1012      2.40000    1.00000
   597  O     c      4.1012      -6.8353      -9.5694      2.40000    1.00000
   598  O     c      6.8353      -4.1012      -9.5694      2.40000    1.00000
   599  O     c      4.1012      -9.5694      -6.8353      2.40000    1.00000
   600  O     c      9.5694      -4.1012      -6.8353      2.40000    1.00000
   601  O     c      6.8353      -4.1012       9.5694      2.40000    1.00000
   602  O     c      6.8353       9.5694      -4.1012      2.40000    1.00000
   603  O     c     -4.1012       6.8353       9.5694      2.40000    1.00000
   604  O     c     -4.1012       9.5694       6.8353      2.40000    1.00000
   605  O     c      9.5694       6.8353      -4.1012      2.40000    1.00000
   606  O     c      9.5694      -4.1012       6.8353      2.40000    1.00000
   607  O     c      6.8353      -9.5694      -4.1012      2.40000    1.00000
   608  O     c      9.5694      -6.8353      -4.1012      2.40000    1.00000
   609  O     c     -1.3671      -1.3671     -12.3035      2.40000    1.00000
   610  O     c    -12.3035      -1.3671      -1.3671      2.40000    1.00000
   611  O     c    -12.3035       1.3671       1.3671      2.40000    1.00000
   612  O     c     -1.3671     -12.3035      -1.3671      2.40000    1.00000
   613  O     c      1.3671     -12.3035       1.3671      2.40000    1.00000
   614  O     c      1.3671       1.3671     -12.3035      2.40000    1.00000
   615  O     c      1.3671       1.3671      12.3035      2.40000    1.00000
   616  O     c     -1.3671      -1.3671      12.3035      2.40000    1.00000
   617  O     c      1.3671      12.3035       1.3671      2.40000    1.00000
   618  O     c    -12.3035      -1.3671       1.3671      2.40000    1.00000
   619  O     c     -1.3671      12.3035      -1.3671      2.40000    1.00000
   620  O     c    -12.3035       1.3671      -1.3671      2.40000    1.00000
   621  O     c     12.3035       1.3671       1.3671      2.40000    1.00000
   622  O     c     -1.3671     -12.3035       1.3671      2.40000    1.00000
   623  O     c     -1.3671       1.3671     -12.3035      2.40000    1.00000
   624  O     c     12.3035      -1.3671      -1.3671      2.40000    1.00000
   625  O     c      1.3671     -12.3035      -1.3671      2.40000    1.00000
   626  O     c      1.3671      -1.3671     -12.3035      2.40000    1.00000
   627  O     c      1.3671      -1.3671      12.3035      2.40000    1.00000
   628  O     c      1.3671      12.3035      -1.3671      2.40000    1.00000
   629  O     c     -1.3671       1.3671      12.3035      2.40000    1.00000
   630  O     c     -1.3671      12.3035       1.3671      2.40000    1.00000
   631  O     c     12.3035       1.3671      -1.3671      2.40000    1.00000
   632  O     c     12.3035      -1.3671       1.3671      2.40000    1.00000
   633  U     c      8.2023       8.2023       5.4682     -2.51000    1.00000
   634  U     c     -8.2023      -8.2023       5.4682     -2.51000    1.00000
   635  U     c      8.2023       5.4682       8.2023     -2.51000    1.00000
   636  U     c     -5.4682      -8.2023       8.2023     -2.51000    1.00000
   637  U     c     -8.2023       5.4682      -8.2023     -2.51000    1.00000
   638  U     c     -5.4682       8.2023      -8.2023     -2.51000    1.00000
   639  U     c      5.4682       8.2023       8.2023     -2.51000    1.00000
   640  U     c     -8.2023      -5.4682       8.2023     -2.51000    1.00000
   641  U     c     -8.2023       8.2023      -5.4682     -2.51000    1.00000
   642  U     c     -5.4682       8.2023       8.2023     -2.51000    1.00000
   643  U     c     -8.2023       5.4682       8.2023     -2.51000    1.00000
   644  U     c     -8.2023       8.2023       5.4682     -2.51000    1.00000
   645  U     c      8.2023      -5.4682       8.2023     -2.51000    1.00000
   646  U     c      5.4682      -8.2023       8.2023     -2.51000    1.00000
   647  U     c      8.2023       8.2023      -5.4682     -2.51000    1.00000
   648  U     c     -8.2023      -8.2023      -5.4682     -2.51000    1.00000
   649  U     c      5.4682       8.2023      -8.2023     -2.51000    1.00000
   650  U     c     -8.2023      -5.4682      -8.2023     -2.51000    1.00000
   651  U     c      8.2023      -8.2023       5.4682     -2.51000    1.00000
   652  U     c      8.2023       5.4682      -8.2023     -2.51000    1.00000
   653  U     c     -5.4682      -8.2023      -8.2023     -2.51000    1.00000
   654  U     c      5.4682      -8.2023      -8.2023     -2.51000    1.00000
   655  U     c      8.2023      -5.4682      -8.2023     -2.51000    1.00000
   656  U     c      8.2023      -8.2023      -5.4682     -2.51000    1.00000
   657  O     c    -12.3035      -4.1012       1.3671      2.40000    1.00000
   658  O     c    -12.3035       1.3671      -4.1012      2.40000    1.00000
   659  O     c    -12.3035       4.1012      -1.3671      2.40000    1.00000
   660  O     c     -4.1012     -12.3035       1.3671      2.40000    1.00000
   661  O     c     -4.1012       1.3671     -12.3035      2.40000    1.00000
   662  O     c     -1.3671       4.1012     -12.3035      2.40000    1.00000
   663  O     c      1.3671     -12.3035      -4.1012      2.40000    1.00000
   664  O     c      4.1012     -12.3035      -1.3671      2.40000    1.00000
   665  O     c      1.3671      -4.1012     -12.3035      2.40000    1.00000
   666  O     c      4.1012      -1.3671     -12.3035      2.40000    1.00000
   667  O     c    -12.3035      -1.3671       4.1012      2.40000    1.00000
   668  O     c     -1.3671     -12.3035       4.1012      2.40000    1.00000
   669  O     c      4.1012      -1.3671      12.3035      2.40000    1.00000
   670  O     c      1.3671      -4.1012      12.3035      2.40000    1.00000
   671  O     c      4.1012      12.3035      -1.3671      2.40000    1.00000
   672  O     c    -12.3035      -4.1012      -1.3671      2.40000    1.00000
   673  O     c      1.3671      12.3035      -4.1012      2.40000    1.00000
   674  O     c    -12.3035      -1.3671      -4.1012      2.40000    1.00000
   675  O     c     -1.3671       4.1012      12.3035      2.40000    1.00000
   676  O     c     -4.1012       1.3671      12.3035      2.40000    1.00000
   677  O     c     -4.1012      12.3035       1.3671      2.40000    1.00000
   678  O     c    -12.3035       4.1012       1.3671      2.40000    1.00000
   679  O     c     12.3035       4.1012      -1.3671      2.40000    1.00000
   680  O     c     -4.1012     -12.3035      -1.3671      2.40000    1.00000
   681  O     c     12.3035      -1.3671       4.1012      2.40000    1.00000
   682  O     c      1.3671     -12.3035       4.1012      2.40000    1.00000
   683  O     c     -4.1012      -1.3671     -12.3035      2.40000    1.00000
   684  O     c      1.3671       4.1012     -12.3035      2.40000    1.00000
   685  O     c     12.3035      -4.1012       1.3671      2.40000    1.00000
   686  O     c      4.1012     -12.3035       1.3671      2.40000    1.00000
   687  O     c     -1.3671      -4.1012     -12.3035      2.40000    1.00000
   688  O     c      4.1012       1.3671     -12.3035      2.40000    1.00000
   689  O     c      4.1012       1.3671      12.3035      2.40000    1.00000
   690  O     c     -1.3671      -4.1012      12.3035      2.40000    1.00000
   691  O     c      4.1012      12.3035       1.3671      2.40000    1.00000
   692  O     c     -1.3671      12.3035      -4.1012      2.40000    1.00000
   693  O     c      1.3671       4.1012      12.3035      2.40000    1.00000
   694  O     c     -4.1012      -1.3671      12.3035      2.40000    1.00000
   695  O     c     -4.1012      12.3035      -1.3671      2.40000    1.00000
   696  O     c     12.3035       4.1012       1.3671      2.40000    1.00000
   697  O     c     12.3035      -1.3671      -4.1012      2.40000    1.00000
   698  O     c     12.3035      -4.1012      -1.3671      2.40000    1.00000
   699  O     c     -1.3671      12.3035       4.1012      2.40000    1.00000
   700  O     c    -12.3035       1.3671       4.1012      2.40000    1.00000
[...]
    72  O     s       0.000207      0.000140      0.000000      0.000000
    73  U     s      -0.000477     -0.000303     -0.000119      0.000000
    74  U     s      -0.000019      0.000000     -0.000235      0.000000
    75  O     s       0.000261      0.000000     -0.000067      0.000000
    76  O     s      -0.000349     -0.000129     -0.000036      0.000000
    77  O     s      -0.000141     -0.000294      0.000093      0.000000
    78  U     s      -0.000123      0.000063     -0.000429      0.000000
--------------------------------------------------------------------------------

  Comparison of initial and final region 1 : 

--------------------------------------------------------------------------------
  Parameter   Initial value   Final value   Difference    Units      Percent
--------------------------------------------------------------------------------
      1 x         -1.367056     -1.610018    -0.242962    Cartesian   17.77
      1 y         -1.367056     -1.610018    -0.242962    Cartesian   17.77
      1 z         -1.367056     -1.610018    -0.242962    Cartesian   17.77
      2 x          2.734111      2.699865    -0.034246    Cartesian   -1.25
      2 y          2.734111      2.699865    -0.034246    Cartesian   -1.25
      2 z          0.000000      0.000000     0.000000    Cartesian    0.00
      3 x         -1.367056     -1.344643     0.022412    Cartesian   -1.64
      3 y          1.367056      1.344643    -0.022412    Cartesian   -1.64
      3 z         -4.101167     -4.188082    -0.086915    Cartesian    2.12
      4 x          0.000000      0.000000     0.000000    Cartesian    0.00
      4 y          0.000000      0.000000     0.000000    Cartesian    0.00
      4 z          5.468223      5.497987     0.029764    Cartesian    0.54
      5 x         -4.101167     -4.119149    -0.017982    Cartesian    0.44
      5 y         -4.101167     -4.119149    -0.017982    Cartesian    0.44
      5 z         -1.367056     -1.376843    -0.009788    Cartesian    0.72
      6 x          5.468223      5.453551    -0.014672    Cartesian   -0.27
      6 y          2.734111      2.720837    -0.013274    Cartesian   -0.49
      6 z          2.734111      2.720837    -0.013274    Cartesian   -0.49
      7 x         -6.835278     -6.896669    -0.061391    Cartesian    0.90
      7 y         -1.367056     -1.380391    -0.013335    Cartesian    0.98
      7 z         -1.367056     -1.380391    -0.013335    Cartesian    0.98
      8 x          4.101167      4.104610     0.003443    Cartesian    0.08
      8 y          4.101167      4.104610     0.003443    Cartesian    0.08
      8 z         -4.101167     -4.104610    -0.003443    Cartesian    0.08
      9 x          5.468223      5.456304    -0.011919    Cartesian   -0.22
      9 y          5.468223      5.456304    -0.011919    Cartesian   -0.22
      9 z          0.000000      0.000000     0.000000    Cartesian    0.00
     10 x         -6.835278     -6.844847    -0.009569    Cartesian    0.14
     10 y          1.367056      1.364556    -0.002500    Cartesian   -0.18
     10 z         -4.101167     -4.107201    -0.006034    Cartesian    0.15
     11 x          2.734111      2.733372    -0.000739    Cartesian   -0.03
     11 y          0.000000      0.000000     0.000000    Cartesian    0.00
     11 z          8.202334      8.206673     0.004339    Cartesian    0.05
     12 x         -6.835278     -6.842249    -0.006971    Cartesian    0.10
     12 y         -4.101167     -4.106233    -0.005066    Cartesian    0.12
     12 z         -4.101167     -4.106233    -0.005066    Cartesian    0.12
     13 x          5.468223      5.459096    -0.009127    Cartesian   -0.17
     13 y          5.468223      5.459096    -0.009127    Cartesian   -0.17
     13 z          5.468223      5.459096    -0.009127    Cartesian   -0.17
     14 x         -1.367056     -1.367771    -0.000715    Cartesian    0.05
     14 y          1.367056      1.367771     0.000715    Cartesian    0.05
     14 z         -9.569389     -9.601426    -0.032037    Cartesian    0.33
     15 x         -6.835278     -6.843576    -0.008297    Cartesian    0.12
     15 y         -6.835278     -6.843576    -0.008297    Cartesian    0.12
     15 z         -1.367056     -1.371743    -0.004688    Cartesian    0.34
     16 x          8.202334      8.192944    -0.009389    Cartesian   -0.11
     16 y          5.468223      5.462029    -0.006193    Cartesian   -0.11
     16 z          2.734111      2.731861    -0.002250    Cartesian   -0.08
     17 x         -4.101167     -4.106955    -0.005788    Cartesian    0.14
     17 y         -9.569389     -9.578910    -0.009520    Cartesian    0.10
     17 z         -1.367056     -1.369941    -0.002885    Cartesian    0.21
     18 x          6.835278      6.836981     0.001703    Cartesian    0.02
     18 y          6.835278      6.836981     0.001703    Cartesian    0.02
     18 z         -4.101167     -4.101733    -0.000566    Cartesian    0.01
     19 x          0.000000      0.000000     0.000000    Cartesian    0.00
     19 y          0.000000      0.000000     0.000000    Cartesian    0.00
     19 z         10.936445     10.941443     0.004998    Cartesian    0.05
     20 x         -4.101167     -4.102439    -0.001273    Cartesian    0.03
     20 y         -9.569389     -9.571622    -0.002232    Cartesian    0.02
     20 z          4.101167      4.102439     0.001273    Cartesian    0.03
     21 x          8.202334      8.197212    -0.005122    Cartesian   -0.06
     21 y          8.202334      8.197212    -0.005122    Cartesian   -0.06
     21 z          0.000000      0.000000     0.000000    Cartesian    0.00
     22 x          2.734111      2.732688    -0.001424    Cartesian   -0.05
     22 y         -2.734111     -2.732688     0.001424    Cartesian   -0.05
     22 z         10.936445     10.930588    -0.005858    Cartesian   -0.05
     23 x         -6.835278     -6.838913    -0.003634    Cartesian    0.05
     23 y          1.367056      1.365862    -0.001193    Cartesian   -0.09
     23 z         -9.569389     -9.574762    -0.005372    Cartesian    0.06
     24 x         -6.835278     -6.841379    -0.006101    Cartesian    0.09
     24 y         -6.835278     -6.841379    -0.006101    Cartesian    0.09
     24 z         -6.835278     -6.841379    -0.006101    Cartesian    0.09
     25 x          0.000000      0.000000     0.000000    Cartesian    0.00
     25 y         -5.468223     -5.469209    -0.000986    Cartesian    0.02
     25 z         10.936445     10.931399    -0.005046    Cartesian   -0.05
     26 x         -9.569389     -9.573387    -0.003997    Cartesian    0.04
     26 y         -4.101167     -4.105417    -0.004250    Cartesian    0.10
     26 z         -6.835278     -6.839791    -0.004512    Cartesian    0.07
     27 x         -1.367056     -1.369755    -0.002699    Cartesian    0.20
     27 y         -1.367056     -1.369755    -0.002699    Cartesian    0.20
     27 z        -12.303501    -12.317256    -0.013755    Cartesian    0.11
     28 x          8.202334      8.198788    -0.003546    Cartesian   -0.04
     28 y          8.202334      8.198788    -0.003546    Cartesian   -0.04
     28 z          5.468223      5.467069    -0.001154    Cartesian   -0.02
     29 x        -12.303501    -12.305084    -0.001583    Cartesian    0.01
     29 y         -4.101167     -4.105437    -0.004270    Cartesian    0.10
     29 z          1.367056      1.368090     0.001034    Cartesian    0.08
     30 x         10.936445     10.930391    -0.006055    Cartesian   -0.06
     30 y          5.468223      5.467830    -0.000393    Cartesian   -0.01
     30 z          5.468223      5.467830    -0.000393    Cartesian   -0.01
     31 x         -9.569389     -9.574090    -0.004701    Cartesian    0.05
     31 y         -9.569389     -9.574090    -0.004701    Cartesian    0.05
     31 z         -1.367056     -1.370666    -0.003611    Cartesian    0.26
     32 x        -12.303501    -12.304444    -0.000943    Cartesian    0.01
     32 y         -4.101167     -4.104057    -0.002890    Cartesian    0.07
     32 z         -4.101167     -4.104057    -0.002890    Cartesian    0.07
     33 x          6.835278      6.838973     0.003695    Cartesian    0.05
     33 y          9.569389      9.575227     0.005838    Cartesian    0.06
     33 z         -6.835278     -6.838973    -0.003695    Cartesian    0.05
     34 x         10.936445     10.929980    -0.006465    Cartesian   -0.06
     34 y          8.202334      8.198892    -0.003442    Cartesian   -0.04
     34 z          2.734111      2.733508    -0.000603    Cartesian   -0.02
     35 x          2.734111      2.733034    -0.001077    Cartesian   -0.04
     35 y          0.000000      0.000000     0.000000    Cartesian    0.00
     35 z         13.670556     13.664673    -0.005883    Cartesian   -0.04
     36 x          9.569389      9.575545     0.006155    Cartesian    0.06
     36 y          9.569389      9.575545     0.006155    Cartesian    0.06
     36 z         -4.101167     -4.103648    -0.002481    Cartesian    0.06
     37 x        -12.303501    -12.309224    -0.005723    Cartesian    0.05
     37 y         -6.835278     -6.839166    -0.003888    Cartesian    0.06
     37 z         -1.367056     -1.369336    -0.002280    Cartesian    0.17
     38 x         -6.835278     -6.839374    -0.004096    Cartesian    0.06
     38 y        -12.303501    -12.310014    -0.006514    Cartesian    0.05
     38 z          4.101167      4.104417     0.003250    Cartesian    0.08
     39 x          5.468223      5.464281    -0.003942    Cartesian   -0.07
     39 y         -2.734111     -2.732633     0.001478    Cartesian   -0.05
     39 z         13.670556     13.658881    -0.011676    Cartesian   -0.09
     40 x         -1.367056     -1.619520    -0.252465    Cartesian   18.47
     40 y         -1.367056     -1.619520    -0.252465    Cartesian   18.47
     40 z         -1.367056     -1.619520    -0.252465    Cartesian   18.47
     41 x          2.734111      2.685186    -0.048925    Cartesian   -1.79
     41 y          2.734111      2.685186    -0.048925    Cartesian   -1.79
     41 z          0.000000      0.000000     0.000000    Cartesian    0.00
     42 x         -1.367056     -1.344058     0.022997    Cartesian   -1.68
     42 y          1.367056      1.344058    -0.022997    Cartesian   -1.68
     42 z         -4.101167     -4.195603    -0.094436    Cartesian    2.30
     43 x          0.000000      0.000000     0.000000    Cartesian    0.00
     43 y          0.000000      0.000000     0.000000    Cartesian    0.00
     43 z          5.468223      5.472178     0.003956    Cartesian    0.07
     44 x         -4.101167     -4.122414    -0.021247    Cartesian    0.52
     44 y         -4.101167     -4.122414    -0.021247    Cartesian    0.52
     44 z         -1.367056     -1.379462    -0.012406    Cartesian    0.91
     45 x          5.468223      5.447096    -0.021126    Cartesian   -0.39
     45 y          2.734111      2.716897    -0.017214    Cartesian   -0.63
     45 z          2.734111      2.716897    -0.017214    Cartesian   -0.63
     46 x         -6.835278     -6.900587    -0.065309    Cartesian    0.96
     46 y         -1.367056     -1.380908    -0.013853    Cartesian    1.01
     46 z         -1.367056     -1.380908    -0.013853    Cartesian    1.01
     47 x          4.101167      4.105606     0.004439    Cartesian    0.11
     47 y          4.101167      4.105606     0.004439    Cartesian    0.11
     47 z         -4.101167     -4.105606    -0.004439    Cartesian    0.11
     48 x          5.468223      5.450501    -0.017722    Cartesian   -0.32
     48 y          5.468223      5.450501    -0.017722    Cartesian   -0.32
     48 z          0.000000      0.000000     0.000000    Cartesian    0.00
     49 x         -6.835278     -6.846187    -0.010909    Cartesian    0.16
     49 y          1.367056      1.364469    -0.002587    Cartesian   -0.19
     49 z         -4.101167     -4.108516    -0.007349    Cartesian    0.18
     50 x          2.734111      2.729950    -0.004161    Cartesian   -0.15
     50 y          0.000000      0.000000     0.000000    Cartesian    0.00
     50 z          8.202334      8.200621    -0.001713    Cartesian   -0.02
     51 x         -6.835278     -6.844220    -0.008941    Cartesian    0.13
     51 y         -4.101167     -4.107881    -0.006714    Cartesian    0.16
     51 z         -4.101167     -4.107881    -0.006714    Cartesian    0.16
     52 x          5.468223      5.455823    -0.012400    Cartesian   -0.23
     52 y          5.468223      5.455823    -0.012400    Cartesian   -0.23
     52 z          5.468223      5.455823    -0.012400    Cartesian   -0.23
     53 x         -1.367056     -1.368227    -0.001171    Cartesian    0.09
     53 y          1.367056      1.368227     0.001171    Cartesian    0.09
     53 z         -9.569389     -9.603924    -0.034535    Cartesian    0.36
     54 x         -6.835278     -6.844994    -0.009716    Cartesian    0.14
     54 y         -6.835278     -6.844994    -0.009716    Cartesian    0.14
     54 z         -1.367056     -1.372833    -0.005778    Cartesian    0.42
     55 x          8.202334      8.189091    -0.013242    Cartesian   -0.16
     55 y          5.468223      5.459499    -0.008723    Cartesian   -0.16
     55 z          2.734111      2.730905    -0.003206    Cartesian   -0.12
     56 x         -4.101167     -4.107194    -0.006027    Cartesian    0.15
     56 y         -9.569389     -9.579833    -0.010443    Cartesian    0.11
     56 z         -1.367056     -1.370159    -0.003104    Cartesian    0.23
     57 x          6.835278      6.837340     0.002061    Cartesian    0.03
     57 y          6.835278      6.837340     0.002061    Cartesian    0.03
     57 z         -4.101167     -4.101482    -0.000315    Cartesian    0.01
     58 x          0.000000      0.000000     0.000000    Cartesian    0.00
     58 y          0.000000      0.000000     0.000000    Cartesian    0.00
     58 z         10.936445     10.936544     0.000099    Cartesian    0.00
     59 x         -4.101167     -4.102533    -0.001366    Cartesian    0.03
     59 y         -9.569389     -9.572083    -0.002693    Cartesian    0.03
     59 z          4.101167      4.102533     0.001366    Cartesian    0.03
     60 x          8.202334      8.194442    -0.007891    Cartesian   -0.10
     60 y          8.202334      8.194442    -0.007891    Cartesian   -0.10
     60 z          0.000000      0.000000     0.000000    Cartesian    0.00
     61 x          2.734111      2.731100    -0.003011    Cartesian   -0.11
     61 y         -2.734111     -2.731100     0.003011    Cartesian   -0.11
     61 z         10.936445     10.927016    -0.009430    Cartesian   -0.09
     62 x         -6.835278     -6.839633    -0.004355    Cartesian    0.06
     62 y          1.367056      1.365426    -0.001630    Cartesian   -0.12
     62 z         -9.569389     -9.575862    -0.006472    Cartesian    0.07
     63 x         -6.835278     -6.842742    -0.007464    Cartesian    0.11
     63 y         -6.835278     -6.842742    -0.007464    Cartesian    0.11
     63 z         -6.835278     -6.842742    -0.007464    Cartesian    0.11
     64 x          0.000000      0.000000     0.000000    Cartesian    0.00
     64 y         -5.468223     -5.467963     0.000259    Cartesian   -0.00
     64 z         10.936445     10.928576    -0.007869    Cartesian   -0.07
     65 x         -9.569389     -9.574467    -0.005078    Cartesian    0.05
     65 y         -4.101167     -4.106239    -0.005073    Cartesian    0.12
     65 z         -6.835278     -6.840707    -0.005429    Cartesian    0.08
     66 x         -1.367056     -1.369736    -0.002680    Cartesian    0.20
     66 y         -1.367056     -1.369736    -0.002680    Cartesian    0.20
     66 z        -12.303501    -12.318666    -0.015166    Cartesian    0.12
     67 x          8.202334      8.197679    -0.004655    Cartesian   -0.06
     67 y          8.202334      8.197679    -0.004655    Cartesian   -0.06
     67 z          5.468223      5.466923    -0.001299    Cartesian   -0.02
     68 x        -12.303501    -12.306015    -0.002515    Cartesian    0.02
     68 y         -4.101167     -4.106142    -0.004975    Cartesian    0.12
     68 z          1.367056      1.368554     0.001498    Cartesian    0.11
     69 x         10.936445     10.928572    -0.007873    Cartesian   -0.07
     69 y          5.468223      5.467759    -0.000463    Cartesian   -0.01
     69 z          5.468223      5.467759    -0.000463    Cartesian   -0.01
     70 x         -9.569389     -9.574564    -0.005175    Cartesian    0.05
     70 y         -9.569389     -9.574564    -0.005175    Cartesian    0.05
     70 z         -1.367056     -1.371589    -0.004533    Cartesian    0.33
     71 x        -12.303501    -12.305579    -0.002078    Cartesian    0.02
     71 y         -4.101167     -4.104356    -0.003189    Cartesian    0.08
     71 z         -4.101167     -4.104356    -0.003189    Cartesian    0.08
     72 x          6.835278      6.838925     0.003646    Cartesian    0.05
     72 y          9.569389      9.575666     0.006277    Cartesian    0.07
     72 z         -6.835278     -6.838925    -0.003646    Cartesian    0.05
     73 x         10.936445     10.928226    -0.008219    Cartesian   -0.08
     73 y          8.202334      8.198425    -0.003909    Cartesian   -0.05
     73 z          2.734111      2.732896    -0.001215    Cartesian   -0.04
     74 x          2.734111      2.731255    -0.002856    Cartesian   -0.10
     74 y          0.000000      0.000000     0.000000    Cartesian    0.00
     74 z         13.670556     13.663019    -0.007537    Cartesian   -0.06
     75 x          9.569389      9.575940     0.006551    Cartesian    0.07
     75 y          9.569389      9.575940     0.006551    Cartesian    0.07
     75 z         -4.101167     -4.103365    -0.002198    Cartesian    0.05
     76 x        -12.303501    -12.309869    -0.006368    Cartesian    0.05
     76 y         -6.835278     -6.839075    -0.003797    Cartesian    0.06
     76 z         -1.367056     -1.369912    -0.002857    Cartesian    0.21
     77 x         -6.835278     -6.839348    -0.004070    Cartesian    0.06
     77 y        -12.303501    -12.310636    -0.007136    Cartesian    0.06
     77 z          4.101167      4.104281     0.003114    Cartesian    0.08
     78 x          5.468223      5.463464    -0.004759    Cartesian   -0.09
     78 y         -2.734111     -2.731923     0.002188    Cartesian   -0.08
     78 z         13.670556     13.655901    -0.014655    Cartesian   -0.11
--------------------------------------------------------------------------------


  Time to end of optimisation  =       28.8000 seconds


  Peak dynamic memory used =     666.41 MB 


  Timing analysis for GULP :

--------------------------------------------------------------------------------
  Task / Subroutine                                          Time (Seconds)
--------------------------------------------------------------------------------
  Calculation of reciprocal space energy and derivatives          0.0010
  Calculation of real space energy and derivatives                0.0040
  Calculation of real space energy using symmetry                 0.0110
  Calculation for region 1 energy and derivatives (2-b)          14.1440
  Calculation for region 2a energy                               12.7590
  Calculation of matrix inversion                                 0.0040
  Symmetry generation of equivalent positions                     0.0020
--------------------------------------------------------------------------------
  Total CPU time                                                 28.8000
--------------------------------------------------------------------------------


  Job Finished at 13:33.35 21st November   2018                               

