********************************************************************************
*                       GENERAL UTILITY LATTICE PROGRAM                        *
*                                 Julian Gale                                  *
*                      Nanochemistry Research Institute                        *
*                           Department of Chemistry                            *
*                    Curtin University, Western Australia                      *
********************************************************************************
* Version = 4.0.6 * Last modified =   1st October 2012                         *
********************************************************************************
*  optimise     - perform optimisation run                                     *
*  conp         - constant pressure calculation                                *
*  property     - calculate properties for final geometry                      *
*  defect       - perform defect calculation after bulk run                    *
*  regi_before  - output region 1 at start of defect calculation               *
*  distance     - calculate distances                                          *
*  compare      - compare initial and final structures                         *
********************************************************************************
* Uranium dioxide simulations                                                  *
********************************************************************************


  Job Started  at 13:53.08 21st November   2018                               

  Number of CPUs =     1

  Host name      = che-thor                                


  Total number of configurations input =   1

********************************************************************************
*  Input for Configuration =   1                                               *
********************************************************************************

  Formula = UO2                                                         

  Number of irreducible atoms/shells =       4


  Total number atoms/shells =       6

  Dimensionality = 3               :  Bulk   


  Symmetry :

  Crystal family                   :  Cubic       
  Crystal class  (Groth - 1921)    :  Cubic Hexakisoctahedral              

  Space group (centrosymmetric)    :  F M 3 M         

  Patterson group                  :  F m -3 m 

  Cartesian lattice vectors (Angstroms) :

        0.000000    2.734100    2.734100
        2.734100    0.000000    2.734100
        2.734100    2.734100    0.000000

  Primitive cell parameters :            Full cell parameters :

  a =   3.8666    alpha =  60.0000       a =   5.4682    alpha =  90.0000
  b =   3.8666    beta  =  60.0000       b =   5.4682    beta  =  90.0000
  c =   3.8666    gamma =  60.0000       c =   5.4682    gamma =  90.0000

  Initial volumes (Angstroms**3):

  Primitive cell =          40.876451    Full cell =         163.505803

  Temperature of configuration =  0.000     K 

  Pressure of configuration =         0.000 GPa 

  Fractional coordinates of asymmetric unit :

--------------------------------------------------------------------------------
   No.  Atomic       x           y          z         Charge      Occupancy
        Label      (Frac)      (Frac)     (Frac)        (e)         (Frac)  
--------------------------------------------------------------------------------
      1 U     c    0.000000    0.000000    0.000000    -2.51000    1.000000    
      2 O     c    0.250000    0.250000    0.250000     2.40000    1.000000    
      3 U     s    0.000000    0.000000    0.000000     6.51000    1.000000    
      4 O     s    0.250000    0.250000    0.250000    -4.40000    1.000000    
--------------------------------------------------------------------------------


  Constraints : 

--------------------------------------------------------------------------------
  Constraint no.      Unconstrained     Constrained    Coefficient    Offset
                         Variable         Variable
--------------------------------------------------------------------------------
           1              Strain 1        Strain 2       1.00000      0.0000
           2              Strain 1        Strain 3       1.00000      0.0000
--------------------------------------------------------------------------------


  Distance calculation :


  Cutoff for distances  =      4.000000 Angstroms

--------------------------------------------------------------------------------
  Asymmetric unit site  Full lattice sites    No.  Distance      No.  Distance
      No.   At.No.            At.No.                (Angs)             (Angs) 
--------------------------------------------------------------------------------
       1   U     core        U     core        12    3.8666
                             U     shell       12    3.8666
                             O     core         8    2.3678
                             O     shell        8    2.3678
--------------------------------------------------------------------------------
       2   O     core        U     core         4    2.3678
                             U     shell        4    2.3678
                             O     core         6    2.7341       12    3.8666
                             O     shell        6    2.7341       12    3.8666
--------------------------------------------------------------------------------
       3   U     shell       U     core        12    3.8666
                             U     shell       12    3.8666
                             O     core         8    2.3678
                             O     shell        8    2.3678
--------------------------------------------------------------------------------
       4   O     shell       U     core         4    2.3678
                             U     shell        4    2.3678
                             O     core         6    2.7341       12    3.8666
                             O     shell        6    2.7341       12    3.8666
--------------------------------------------------------------------------------



********************************************************************************
*  General input information                                                   *
********************************************************************************

  Species output for all configurations : 

--------------------------------------------------------------------------------
  Species    Type    Atomic    Atomic    Charge       Radii (Angs)     Library
                     Number     Mass       (e)     Cova   Ionic  VDW   Symbol
--------------------------------------------------------------------------------
    U        Core       92     238.03  -2.510000   1.580  0.000  2.360          
    U        Shell      92       0.00   6.510000   1.580  0.000  2.360          
    O        Core        8      16.00   2.400000   0.730  0.000  1.360          
    O        Shell       8       0.00  -4.400000   0.730  0.000  1.360          
--------------------------------------------------------------------------------


  Lattice summation method               =    Ewald          (3-D)
                                         =    Parry          (2-D)
                                         =    Saunders et al (1-D)
  Accuracy factor for lattice sums       =   12.000


  Time limit = Infinity

  Maximum range for interatomic potentials =    100000.000000 Angstroms

  General interatomic potentials :

--------------------------------------------------------------------------------
Atom  Types   Potential         A         B         C         D     Cutoffs(Ang)
  1     2                                                            Min    Max 
--------------------------------------------------------------------------------
O    s U    s Buckingham    0.103E+04 0.403      0.00      0.00     0.000 15.000
O    s O    s Buck 4 range  0.113E+05 0.136      134.      2.10     0.000 15.000
U    c U    s Spring (c-s)   111.      0.00      0.00      0.00     0.000  0.600
O    c O    s Spring (c-s)   296.      0.00      0.00      0.00     0.000  0.600
--------------------------------------------------------------------------------

********************************************************************************
*  Output for configuration   1                                                *
********************************************************************************


  Components of energy : 

--------------------------------------------------------------------------------
  Interatomic potentials     =          20.59100851 eV
  Monopole - monopole (real) =         -14.53808335 eV
  Monopole - monopole (recip)=        -108.03524745 eV
  Monopole - monopole (total)=        -122.57333080 eV
--------------------------------------------------------------------------------
  Total lattice energy : 
    Primitive unit cell      =        -101.98232230 eV
    Non-primitive unit cell  =        -407.92928918 eV
--------------------------------------------------------------------------------
  Total lattice energy (in kJmol-1): 
    Primitive unit cell      =           -9839.7352 kJ/(mole unit cells)
    Non-primitive unit cell  =          -39358.9406 kJ/(mole unit cells)
--------------------------------------------------------------------------------


  Number of variables =        1

  Maximum number of calculations  =          1000
  Maximum Hessian update interval =            10
  Maximum step size               =   1.000000000
  Maximum parameter tolerance     =   0.000010000
  Maximum function  tolerance     =   0.000010000
  Maximum gradient  tolerance     =   0.001000000
  Maximum gradient  component     =   0.010000000

  Symmetry constrained optimisation

  Symmetry used for second derivatives

  Cell parameters to be optimised using strains

  Newton-Raphson optimiser to be used

  BFGS hessian update to be used

  Start of bulk optimisation :

  Cycle:      0 Energy:      -101.982322  Gnorm:      0.001971  CPU:    0.008
  ** Hessian calculated **


  **** Optimisation achieved ****


  Final energy =    -101.98232230 eV
  Final Gnorm  =       0.00000037

  Components of energy : 

--------------------------------------------------------------------------------
  Interatomic potentials     =          20.59050323 eV
  Monopole - monopole (real) =         -14.53802342 eV
  Monopole - monopole (recip)=        -108.03480210 eV
  Monopole - monopole (total)=        -122.57282553 eV
--------------------------------------------------------------------------------
  Total lattice energy : 
    Primitive unit cell      =        -101.98232230 eV
    Non-primitive unit cell  =        -407.92928920 eV
--------------------------------------------------------------------------------
  Total lattice energy (in kJmol-1): 
    Primitive unit cell      =           -9839.7352 kJ/(mole unit cells)
    Non-primitive unit cell  =          -39358.9406 kJ/(mole unit cells)
--------------------------------------------------------------------------------

  Final asymmetric unit coordinates :

--------------------------------------------------------------------------------
   No.  Atomic        x           y           z         Radius
        Label       (Frac)      (Frac)      (Frac)       (Angs) 
--------------------------------------------------------------------------------
     1  U     c     0.000000    0.000000    0.000000    0.000000
     2  O     c     0.250000    0.250000    0.250000    0.000000
     3  U     s     0.000000    0.000000    0.000000    0.000000
     4  O     s     0.250000    0.250000    0.250000    0.000000
--------------------------------------------------------------------------------

  Final Cartesian lattice vectors (Angstroms) :

        0.000000    2.734111    2.734111
        2.734111    0.000000    2.734111
        2.734111    2.734111    0.000000


  Final cell parameters and derivatives :

--------------------------------------------------------------------------------
       a            3.866617 Angstrom     dE/de1(xx)     0.000000 eV/strain
       b            3.866617 Angstrom     dE/de2(yy)     0.000000 eV/strain
       c            3.866617 Angstrom     dE/de3(zz)     0.000000 eV/strain
       alpha       60.000000 Degrees      dE/de4(yz)     0.000000 eV/strain
       beta        60.000000 Degrees      dE/de5(xz)     0.000000 eV/strain
       gamma       60.000000 Degrees      dE/de6(xy)     0.000000 eV/strain
--------------------------------------------------------------------------------

  Primitive cell volume =            40.876956 Angs**3

  Density of cell =     10.969567 g/cm**3

  Non-primitive lattice parameters :

  a    =     5.468223  b   =     5.468223  c    =     5.468223
  alpha=    90.000000  beta=    90.000000  gamma=    90.000000

  Non-primitive cell volume =           163.507825 Angs**3


  Final internal derivatives :

--------------------------------------------------------------------------------
   No.  Atomic          a             b             c           Radius
        Label          (eV)          (eV)          (eV)        (eV/Angs)
--------------------------------------------------------------------------------
      1 U     c       0.000000      0.000000      0.000000      0.000000
      2 O     c       0.000000      0.000000      0.000000      0.000000
      3 U     s       0.000000      0.000000      0.000000      0.000000
      4 O     s       0.000000      0.000000      0.000000      0.000000
--------------------------------------------------------------------------------
  Maximum abs         0.000000      0.000000      0.000000      0.000000
--------------------------------------------------------------------------------

  Comparison of initial and final structures : 

--------------------------------------------------------------------------------
  Parameter   Initial value   Final value   Difference    Units      Percent
--------------------------------------------------------------------------------
    Volume       163.505803    163.507825     0.002022    Angs**3      0.00
    a              5.468200      5.468223     0.000023    Angstroms    0.00
    b              5.468200      5.468223     0.000023    Angstroms    0.00
    c              5.468200      5.468223     0.000023    Angstroms    0.00
    alpha         90.000000     90.000000     0.000000    Degrees      0.00
    beta          90.000000     90.000000     0.000000    Degrees      0.00
    gamma         90.000000     90.000000     0.000000    Degrees      0.00
      1 x          0.000000      0.000000     0.000000    Fractional   0.00
      1 y          0.000000      0.000000     0.000000    Fractional   0.00
      1 z          0.000000      0.000000     0.000000    Fractional   0.00
      2 x          0.250000      0.250000     0.000000    Fractional   0.00
      2 y          0.250000      0.250000     0.000000    Fractional   0.00
      2 z          0.250000      0.250000     0.000000    Fractional   0.00
      3 x          0.000000      0.000000     0.000000    Fractional   0.00
      3 y          0.000000      0.000000     0.000000    Fractional   0.00
      3 z          0.000000      0.000000     0.000000    Fractional   0.00
      4 x          0.250000      0.250000     0.000000    Fractional   0.00
      4 y          0.250000      0.250000     0.000000    Fractional   0.00
      4 z          0.250000      0.250000     0.000000    Fractional   0.00
--------------------------------------------------------------------------------


  Distance calculation :


  Cutoff for distances  =      4.000000 Angstroms

--------------------------------------------------------------------------------
  Asymmetric unit site  Full lattice sites    No.  Distance      No.  Distance
      No.   At.No.            At.No.                (Angs)             (Angs) 
--------------------------------------------------------------------------------
       1   U     core        U     core        12    3.8666
                             U     shell       12    3.8666
                             O     core         8    2.3678
                             O     shell        8    2.3678
--------------------------------------------------------------------------------
       2   O     core        U     core         4    2.3678
                             U     shell        4    2.3678
                             O     core         6    2.7341       12    3.8666
                             O     shell        6    2.7341       12    3.8666
--------------------------------------------------------------------------------
       3   U     shell       U     core        12    3.8666
                             U     shell       12    3.8666
                             O     core         8    2.3678
                             O     shell        8    2.3678
--------------------------------------------------------------------------------
       4   O     shell       U     core         4    2.3678
                             U     shell        4    2.3678
                             O     core         6    2.7341       12    3.8666
                             O     shell        6    2.7341       12    3.8666
--------------------------------------------------------------------------------



  Born effective charge tensors : 

-------------------------------------------------------------------------------
  Atom             x           y             z
-------------------------------------------------------------------------------
   1 U     x       5.2290      0.0000     -0.0000
           y       0.0000      5.2290      0.0000
           z      -0.0000      0.0000      5.2290
-------------------------------------------------------------------------------
   2 O     x      -2.6145      0.0000      0.0000
           y       0.0000     -2.6145     -0.0000
           z       0.0000     -0.0000     -2.6145
-------------------------------------------------------------------------------




  Elastic Constant Matrix: (Units=GPa)

-------------------------------------------------------------------------------
  Indices      1         2         3         4         5         6    
-------------------------------------------------------------------------------
       1    391.4302  116.7250  116.7250    0.0000    0.0000    0.0000
       2    116.7250  391.4302  116.7250    0.0000    0.0000    0.0000
       3    116.7250  116.7250  391.4302    0.0000    0.0000    0.0000
       4      0.0000    0.0000    0.0000   58.0905    0.0000    0.0000
       5      0.0000    0.0000    0.0000    0.0000   58.0905    0.0000
       6      0.0000    0.0000    0.0000    0.0000    0.0000   58.0905
-------------------------------------------------------------------------------


  Elastic Compliance Matrix: (Units=1/GPa)

-------------------------------------------------------------------------------
  Indices      1         2         3         4         5         6    
-------------------------------------------------------------------------------
       1    0.002960 -0.000680 -0.000680 -0.000000 -0.000000 -0.000000
       2   -0.000680  0.002960 -0.000680 -0.000000 -0.000000 -0.000000
       3   -0.000680 -0.000680  0.002960 -0.000000 -0.000000 -0.000000
       4   -0.000000 -0.000000 -0.000000  0.017215 -0.000000 -0.000000
       5   -0.000000 -0.000000 -0.000000 -0.000000  0.017215 -0.000000
       6   -0.000000 -0.000000 -0.000000 -0.000000 -0.000000  0.017215
-------------------------------------------------------------------------------

  Mechanical properties :

-------------------------------------------------------------------------------
  Convention :                    Reuss         Voigt         Hill
-------------------------------------------------------------------------------
  Bulk  Modulus (GPa)     =     208.29341     208.29341     208.29341
  Shear Modulus (GPa)     =      75.52342      89.79533      82.65937
-------------------------------------------------------------------------------
  Velocity S-wave (km/s)  =       2.62389       2.86109       2.74506
  Velocity P-wave (km/s)  =       5.30736       5.46834       5.38845
-------------------------------------------------------------------------------
  Compressibility (1/GPa) =    0.00480092
-------------------------------------------------------------------------------
  Stress axis :                     x             y             z
-------------------------------------------------------------------------------
  Youngs Moduli (GPa)     =     337.80590     337.80590     337.80590
-------------------------------------------------------------------------------
  Poissons Ratio (x)      =                     0.22970       0.22970
  Poissons Ratio (y)      =       0.22970                     0.22970
  Poissons Ratio (z)      =       0.22970       0.22970
-------------------------------------------------------------------------------


  Piezoelectric Strain Matrix: (Units=C/m**2)

-------------------------------------------------------------------------------
  Indices      1         2         3         4         5         6    
-------------------------------------------------------------------------------
       x    -0.00000  -0.00000  -0.00000  -0.00000   0.00000  -0.00000
       y    -0.00000  -0.00000  -0.00000   0.00000  -0.00000  -0.00000
       z     0.00000   0.00000  -0.00000  -0.00000  -0.00000  -0.00000
-------------------------------------------------------------------------------


  Piezoelectric Stress Matrix: (Units=10**-11 C/N)

-------------------------------------------------------------------------------
  Indices      1         2         3         4         5         6    
-------------------------------------------------------------------------------
       x    -0.00000  -0.00000  -0.00000  -0.00000   0.00000  -0.00000
       y    -0.00000  -0.00000  -0.00000   0.00000  -0.00000  -0.00000
       z     0.00000   0.00000  -0.00000  -0.00000  -0.00000  -0.00000
-------------------------------------------------------------------------------


  Static dielectric constant tensor : 

-------------------------------------------------------------------------------
              x         y         z
-------------------------------------------------------------------------------
       x    24.34269   0.00000  -0.00000
       y     0.00000  24.34269  -0.00000
       z    -0.00000  -0.00000  24.34269
--------------------------------------------------------------------------------

  High frequency dielectric constant tensor : 

-------------------------------------------------------------------------------
              x         y         z
-------------------------------------------------------------------------------
       x     4.94810   0.00000   0.00000
       y     0.00000   4.94810   0.00000
       z     0.00000   0.00000   4.94810
-------------------------------------------------------------------------------

  Static refractive indices : 

-------------------------------------------------------------------------------
    1 =    4.93383      2 =    4.93383      3 =    4.93383
-------------------------------------------------------------------------------

  High frequency refractive indices : 

-------------------------------------------------------------------------------
    1 =    2.22443      2 =    2.22443      3 =    2.22443
-------------------------------------------------------------------------------


  Time to end of optimisation =       0.0180 seconds

********************************************************************************
*  Defect calculation for configuration   1 :                                  *
********************************************************************************

  Total number of defects =      1

  Total charge on defect  =  -4.00

  Defect centre is at   0.0000   0.0000   0.0100  Frac

  Region 1 radius =  15.0000      Number of ions =   2064

  Number of symmetry inequivalent region 1 ions  =    330

  Region 2 radius =  28.0000      Number of ions =  11516

  Number of symmetry inequivalent region 2a ions =   1634

  Region 2a mode = 4 : screened electrostatics due to region 1 
                       neglect correction to region 1 forces from 2a
                       region 2a displacements based on defects only

  Region 2a ions will only interact with defects in region 1

  Vacancies:

--------------------------------------------------------------------------------
    Specification type     Symbol/Number         x          y          z
--------------------------------------------------------------------------------
    Fractional                               0.000000   0.000000   0.010000
--------------------------------------------------------------------------------


  Region 1 (Absolute coordinates) :

--------------------------------------------------------------------------------
   No.   Atomic       x            y             z         Charge   Occupancy
         Label      (Angs)       (Angs)        (Angs)        (e)    
--------------------------------------------------------------------------------
     1  O     c     -1.3671      -1.3671       1.3671      2.40000    1.00000
     2  O     c      1.3671       1.3671       1.3671      2.40000    1.00000
     3  O     c      1.3671      -1.3671       1.3671      2.40000    1.00000
     4  O     c     -1.3671       1.3671       1.3671      2.40000    1.00000
     5  O     c     -1.3671      -1.3671      -1.3671      2.40000    1.00000
     6  O     c     -1.3671       1.3671      -1.3671      2.40000    1.00000
     7  O     c      1.3671      -1.3671      -1.3671      2.40000    1.00000
     8  O     c      1.3671       1.3671      -1.3671      2.40000    1.00000
     9  U     c      0.0000       2.7341       2.7341     -2.51000    1.00000
    10  U     c     -2.7341       0.0000       2.7341     -2.51000    1.00000
    11  U     c      2.7341       0.0000       2.7341     -2.51000    1.00000
    12  U     c      0.0000      -2.7341       2.7341     -2.51000    1.00000
    13  U     c      2.7341       2.7341      -0.0000     -2.51000    1.00000
    14  U     c     -2.7341      -2.7341      -0.0000     -2.51000    1.00000
    15  U     c     -2.7341       2.7341      -0.0000     -2.51000    1.00000
    16  U     c      2.7341      -2.7341      -0.0000     -2.51000    1.00000
    17  U     c     -2.7341       0.0000      -2.7341     -2.51000    1.00000
    18  U     c      0.0000       2.7341      -2.7341     -2.51000    1.00000
    19  U     c      0.0000      -2.7341      -2.7341     -2.51000    1.00000
    20  U     c      2.7341       0.0000      -2.7341     -2.51000    1.00000
    21  O     c      1.3671      -1.3671       4.1012      2.40000    1.00000
    22  O     c     -1.3671       1.3671       4.1012      2.40000    1.00000
    23  O     c      1.3671       1.3671       4.1012      2.40000    1.00000
    24  O     c     -1.3671      -1.3671       4.1012      2.40000    1.00000
    25  O     c     -1.3671      -4.1012       1.3671      2.40000    1.00000
    26  O     c     -4.1012      -1.3671       1.3671      2.40000    1.00000
    27  O     c     -4.1012       1.3671       1.3671      2.40000    1.00000
    28  O     c      1.3671      -4.1012       1.3671      2.40000    1.00000
    29  O     c     -1.3671       4.1012       1.3671      2.40000    1.00000
    30  O     c      4.1012      -1.3671       1.3671      2.40000    1.00000
    31  O     c      4.1012       1.3671       1.3671      2.40000    1.00000
    32  O     c      1.3671       4.1012       1.3671      2.40000    1.00000
    33  O     c     -4.1012       1.3671      -1.3671      2.40000    1.00000
    34  O     c      1.3671      -4.1012      -1.3671      2.40000    1.00000
    35  O     c      4.1012      -1.3671      -1.3671      2.40000    1.00000
    36  O     c     -4.1012      -1.3671      -1.3671      2.40000    1.00000
    37  O     c      1.3671       4.1012      -1.3671      2.40000    1.00000
    38  O     c     -1.3671      -4.1012      -1.3671      2.40000    1.00000
    39  O     c      4.1012       1.3671      -1.3671      2.40000    1.00000
    40  O     c     -1.3671       4.1012      -1.3671      2.40000    1.00000
    41  O     c     -1.3671       1.3671      -4.1012      2.40000    1.00000
    42  O     c      1.3671      -1.3671      -4.1012      2.40000    1.00000
    43  O     c     -1.3671      -1.3671      -4.1012      2.40000    1.00000
    44  O     c      1.3671       1.3671      -4.1012      2.40000    1.00000
    45  U     c      0.0000       0.0000       5.4682     -2.51000    1.00000
    46  U     c      0.0000       5.4682      -0.0000     -2.51000    1.00000
    47  U     c     -5.4682       0.0000      -0.0000     -2.51000    1.00000
    48  U     c      5.4682       0.0000      -0.0000     -2.51000    1.00000
    49  U     c      0.0000      -5.4682      -0.0000     -2.51000    1.00000
    50  U     c      0.0000       0.0000      -5.4682     -2.51000    1.00000
    51  O     c      4.1012       1.3671       4.1012      2.40000    1.00000
    52  O     c     -1.3671      -4.1012       4.1012      2.40000    1.00000
    53  O     c      1.3671       4.1012       4.1012      2.40000    1.00000
    54  O     c     -4.1012      -1.3671       4.1012      2.40000    1.00000
    55  O     c      4.1012      -1.3671       4.1012      2.40000    1.00000
    56  O     c      1.3671      -4.1012       4.1012      2.40000    1.00000
    57  O     c     -1.3671       4.1012       4.1012      2.40000    1.00000
    58  O     c     -4.1012       1.3671       4.1012      2.40000    1.00000
    59  O     c      4.1012       4.1012       1.3671      2.40000    1.00000
    60  O     c     -4.1012      -4.1012       1.3671      2.40000    1.00000
    61  O     c     -4.1012       4.1012       1.3671      2.40000    1.00000
    62  O     c      4.1012      -4.1012       1.3671      2.40000    1.00000
    63  O     c     -4.1012      -4.1012      -1.3671      2.40000    1.00000
    64  O     c      4.1012       4.1012      -1.3671      2.40000    1.00000
    65  O     c     -4.1012       4.1012      -1.3671      2.40000    1.00000
    66  O     c      4.1012      -4.1012      -1.3671      2.40000    1.00000
    67  O     c     -4.1012      -1.3671      -4.1012      2.40000    1.00000
    68  O     c     -1.3671      -4.1012      -4.1012      2.40000    1.00000
    69  O     c      1.3671       4.1012      -4.1012      2.40000    1.00000
    70  O     c      4.1012       1.3671      -4.1012      2.40000    1.00000
    71  O     c     -4.1012       1.3671      -4.1012      2.40000    1.00000
    72  O     c     -1.3671       4.1012      -4.1012      2.40000    1.00000
    73  O     c      1.3671      -4.1012      -4.1012      2.40000    1.00000
    74  O     c      4.1012      -1.3671      -4.1012      2.40000    1.00000
    75  U     c      2.7341      -2.7341       5.4682     -2.51000    1.00000
    76  U     c      2.7341       2.7341       5.4682     -2.51000    1.00000
    77  U     c     -2.7341      -2.7341       5.4682     -2.51000    1.00000
    78  U     c     -2.7341       2.7341       5.4682     -2.51000    1.00000
    79  U     c      5.4682       2.7341       2.7341     -2.51000    1.00000
    80  U     c     -2.7341      -5.4682       2.7341     -2.51000    1.00000
    81  U     c      2.7341       5.4682       2.7341     -2.51000    1.00000
    82  U     c     -5.4682      -2.7341       2.7341     -2.51000    1.00000
    83  U     c     -2.7341       5.4682       2.7341     -2.51000    1.00000
    84  U     c     -5.4682       2.7341       2.7341     -2.51000    1.00000
    85  U     c      5.4682      -2.7341       2.7341     -2.51000    1.00000
    86  U     c      2.7341      -5.4682       2.7341     -2.51000    1.00000
    87  U     c      2.7341       5.4682      -2.7341     -2.51000    1.00000
    88  U     c     -5.4682      -2.7341      -2.7341     -2.51000    1.00000
    89  U     c     -5.4682       2.7341      -2.7341     -2.51000    1.00000
    90  U     c     -2.7341       5.4682      -2.7341     -2.51000    1.00000
    91  U     c      5.4682       2.7341      -2.7341     -2.51000    1.00000
    92  U     c     -2.7341      -5.4682      -2.7341     -2.51000    1.00000
    93  U     c      2.7341      -5.4682      -2.7341     -2.51000    1.00000
    94  U     c      5.4682      -2.7341      -2.7341     -2.51000    1.00000
    95  U     c     -2.7341       2.7341      -5.4682     -2.51000    1.00000
    96  U     c     -2.7341      -2.7341      -5.4682     -2.51000    1.00000
    97  U     c      2.7341       2.7341      -5.4682     -2.51000    1.00000
    98  U     c      2.7341      -2.7341      -5.4682     -2.51000    1.00000
    99  O     c      1.3671       1.3671       6.8353      2.40000    1.00000
   100  O     c     -1.3671      -1.3671       6.8353      2.40000    1.00000
   101  O     c      1.3671      -1.3671       6.8353      2.40000    1.00000
   102  O     c     -1.3671       1.3671       6.8353      2.40000    1.00000
   103  O     c     -4.1012      -4.1012       4.1012      2.40000    1.00000
   104  O     c     -4.1012       4.1012       4.1012      2.40000    1.00000
   105  O     c      4.1012      -4.1012       4.1012      2.40000    1.00000
   106  O     c      4.1012       4.1012       4.1012      2.40000    1.00000
   107  O     c     -6.8353       1.3671       1.3671      2.40000    1.00000
   108  O     c      1.3671      -6.8353       1.3671      2.40000    1.00000
   109  O     c      1.3671       6.8353       1.3671      2.40000    1.00000
   110  O     c     -6.8353      -1.3671       1.3671      2.40000    1.00000
   111  O     c      6.8353       1.3671       1.3671      2.40000    1.00000
   112  O     c     -1.3671      -6.8353       1.3671      2.40000    1.00000
   113  O     c     -1.3671       6.8353       1.3671      2.40000    1.00000
   114  O     c      6.8353      -1.3671       1.3671      2.40000    1.00000
   115  O     c     -6.8353      -1.3671      -1.3671      2.40000    1.00000
   116  O     c     -1.3671      -6.8353      -1.3671      2.40000    1.00000
   117  O     c      1.3671       6.8353      -1.3671      2.40000    1.00000
   118  O     c      6.8353       1.3671      -1.3671      2.40000    1.00000
   119  O     c     -6.8353       1.3671      -1.3671      2.40000    1.00000
   120  O     c      1.3671      -6.8353      -1.3671      2.40000    1.00000
   121  O     c     -1.3671       6.8353      -1.3671      2.40000    1.00000
   122  O     c      6.8353      -1.3671      -1.3671      2.40000    1.00000
   123  O     c      4.1012       4.1012      -4.1012      2.40000    1.00000
   124  O     c     -4.1012       4.1012      -4.1012      2.40000    1.00000
   125  O     c      4.1012      -4.1012      -4.1012      2.40000    1.00000
   126  O     c     -4.1012      -4.1012      -4.1012      2.40000    1.00000
   127  O     c     -1.3671      -1.3671      -6.8353      2.40000    1.00000
   128  O     c      1.3671       1.3671      -6.8353      2.40000    1.00000
   129  O     c     -1.3671       1.3671      -6.8353      2.40000    1.00000
   130  O     c      1.3671      -1.3671      -6.8353      2.40000    1.00000
   131  U     c      5.4682       0.0000       5.4682     -2.51000    1.00000
   132  U     c      0.0000      -5.4682       5.4682     -2.51000    1.00000
   133  U     c      0.0000       5.4682       5.4682     -2.51000    1.00000
   134  U     c     -5.4682       0.0000       5.4682     -2.51000    1.00000
   135  U     c      5.4682       5.4682      -0.0000     -2.51000    1.00000
   136  U     c     -5.4682      -5.4682      -0.0000     -2.51000    1.00000
   137  U     c     -5.4682       5.4682      -0.0000     -2.51000    1.00000
   138  U     c      5.4682      -5.4682      -0.0000     -2.51000    1.00000
   139  U     c     -5.4682       0.0000      -5.4682     -2.51000    1.00000
   140  U     c      0.0000       5.4682      -5.4682     -2.51000    1.00000
   141  U     c      0.0000      -5.4682      -5.4682     -2.51000    1.00000
   142  U     c      5.4682       0.0000      -5.4682     -2.51000    1.00000
   143  O     c      4.1012      -1.3671       6.8353      2.40000    1.00000
   144  O     c      1.3671      -4.1012       6.8353      2.40000    1.00000
   145  O     c     -1.3671       4.1012       6.8353      2.40000    1.00000
   146  O     c     -4.1012       1.3671       6.8353      2.40000    1.00000
   147  O     c      4.1012       1.3671       6.8353      2.40000    1.00000
   148  O     c     -1.3671      -4.1012       6.8353      2.40000    1.00000
   149  O     c      1.3671       4.1012       6.8353      2.40000    1.00000
   150  O     c     -4.1012      -1.3671       6.8353      2.40000    1.00000
   151  O     c     -1.3671      -6.8353       4.1012      2.40000    1.00000
   152  O     c     -6.8353      -1.3671       4.1012      2.40000    1.00000
   153  O     c     -1.3671       6.8353       4.1012      2.40000    1.00000
   154  O     c     -6.8353       1.3671       4.1012      2.40000    1.00000
   155  O     c      6.8353      -1.3671       4.1012      2.40000    1.00000
   156  O     c      1.3671      -6.8353       4.1012      2.40000    1.00000
   157  O     c      6.8353       1.3671       4.1012      2.40000    1.00000
   158  O     c      1.3671       6.8353       4.1012      2.40000    1.00000
   159  O     c     -4.1012      -6.8353       1.3671      2.40000    1.00000
   160  O     c     -6.8353      -4.1012       1.3671      2.40000    1.00000
   161  O     c     -6.8353       4.1012       1.3671      2.40000    1.00000
   162  O     c     -4.1012       6.8353       1.3671      2.40000    1.00000
   163  O     c      4.1012      -6.8353       1.3671      2.40000    1.00000
   164  O     c      6.8353      -4.1012       1.3671      2.40000    1.00000
   165  O     c      6.8353       4.1012       1.3671      2.40000    1.00000
   166  O     c      4.1012       6.8353       1.3671      2.40000    1.00000
   167  O     c     -6.8353       4.1012      -1.3671      2.40000    1.00000
   168  O     c      4.1012      -6.8353      -1.3671      2.40000    1.00000
   169  O     c      4.1012       6.8353      -1.3671      2.40000    1.00000
   170  O     c     -6.8353      -4.1012      -1.3671      2.40000    1.00000
   171  O     c      6.8353       4.1012      -1.3671      2.40000    1.00000
   172  O     c     -4.1012      -6.8353      -1.3671      2.40000    1.00000
   173  O     c     -4.1012       6.8353      -1.3671      2.40000    1.00000
   174  O     c      6.8353      -4.1012      -1.3671      2.40000    1.00000
   175  O     c     -6.8353       1.3671      -4.1012      2.40000    1.00000
   176  O     c      1.3671      -6.8353      -4.1012      2.40000    1.00000
   177  O     c     -1.3671       6.8353      -4.1012      2.40000    1.00000
   178  O     c      6.8353      -1.3671      -4.1012      2.40000    1.00000
   179  O     c     -6.8353      -1.3671      -4.1012      2.40000    1.00000
   180  O     c      1.3671       6.8353      -4.1012      2.40000    1.00000
   181  O     c     -1.3671      -6.8353      -4.1012      2.40000    1.00000
   182  O     c      6.8353       1.3671      -4.1012      2.40000    1.00000
   183  O     c     -4.1012       1.3671      -6.8353      2.40000    1.00000
   184  O     c     -1.3671       4.1012      -6.8353      2.40000    1.00000
   185  O     c      1.3671      -4.1012      -6.8353      2.40000    1.00000
   186  O     c      4.1012      -1.3671      -6.8353      2.40000    1.00000
   187  O     c      1.3671       4.1012      -6.8353      2.40000    1.00000
   188  O     c      4.1012       1.3671      -6.8353      2.40000    1.00000
   189  O     c     -4.1012      -1.3671      -6.8353      2.40000    1.00000
   190  O     c     -1.3671      -4.1012      -6.8353      2.40000    1.00000
   191  U     c      2.7341       0.0000       8.2023     -2.51000    1.00000
   192  U     c      0.0000      -2.7341       8.2023     -2.51000    1.00000
   193  U     c      0.0000       2.7341       8.2023     -2.51000    1.00000
   194  U     c     -2.7341       0.0000       8.2023     -2.51000    1.00000
   195  U     c      0.0000       8.2023       2.7341     -2.51000    1.00000
   196  U     c     -8.2023       0.0000       2.7341     -2.51000    1.00000
   197  U     c      8.2023       0.0000       2.7341     -2.51000    1.00000
   198  U     c      0.0000      -8.2023       2.7341     -2.51000    1.00000
   199  U     c      2.7341       8.2023      -0.0000     -2.51000    1.00000
   200  U     c     -8.2023      -2.7341      -0.0000     -2.51000    1.00000
   201  U     c     -2.7341       8.2023      -0.0000     -2.51000    1.00000
   202  U     c     -8.2023       2.7341      -0.0000     -2.51000    1.00000
   203  U     c      8.2023       2.7341      -0.0000     -2.51000    1.00000
   204  U     c     -2.7341      -8.2023      -0.0000     -2.51000    1.00000
   205  U     c      8.2023      -2.7341      -0.0000     -2.51000    1.00000
   206  U     c      2.7341      -8.2023      -0.0000     -2.51000    1.00000
   207  U     c      0.0000       8.2023      -2.7341     -2.51000    1.00000
   208  U     c     -8.2023       0.0000      -2.7341     -2.51000    1.00000
   209  U     c      8.2023       0.0000      -2.7341     -2.51000    1.00000
   210  U     c      0.0000      -8.2023      -2.7341     -2.51000    1.00000
   211  U     c     -2.7341       0.0000      -8.2023     -2.51000    1.00000
   212  U     c      0.0000       2.7341      -8.2023     -2.51000    1.00000
   213  U     c      0.0000      -2.7341      -8.2023     -2.51000    1.00000
   214  U     c      2.7341       0.0000      -8.2023     -2.51000    1.00000
   215  O     c      4.1012       4.1012       6.8353      2.40000    1.00000
   216  O     c     -4.1012      -4.1012       6.8353      2.40000    1.00000
   217  O     c      4.1012      -4.1012       6.8353      2.40000    1.00000
   218  O     c     -4.1012       4.1012       6.8353      2.40000    1.00000
   219  O     c      6.8353       4.1012       4.1012      2.40000    1.00000
   220  O     c     -4.1012      -6.8353       4.1012      2.40000    1.00000
   221  O     c      4.1012       6.8353       4.1012      2.40000    1.00000
   222  O     c     -6.8353      -4.1012       4.1012      2.40000    1.00000
   223  O     c     -4.1012       6.8353       4.1012      2.40000    1.00000
   224  O     c     -6.8353       4.1012       4.1012      2.40000    1.00000
   225  O     c      6.8353      -4.1012       4.1012      2.40000    1.00000
   226  O     c      4.1012      -6.8353       4.1012      2.40000    1.00000
   227  O     c     -6.8353      -4.1012      -4.1012      2.40000    1.00000
   228  O     c     -4.1012      -6.8353      -4.1012      2.40000    1.00000
   229  O     c     -6.8353       4.1012      -4.1012      2.40000    1.00000
   230  O     c      4.1012      -6.8353      -4.1012      2.40000    1.00000
   231  O     c      4.1012       6.8353      -4.1012      2.40000    1.00000
   232  O     c      6.8353       4.1012      -4.1012      2.40000    1.00000
   233  O     c     -4.1012       6.8353      -4.1012      2.40000    1.00000
   234  O     c      6.8353      -4.1012      -4.1012      2.40000    1.00000
   235  O     c     -4.1012      -4.1012      -6.8353      2.40000    1.00000
   236  O     c      4.1012       4.1012      -6.8353      2.40000    1.00000
   237  O     c     -4.1012       4.1012      -6.8353      2.40000    1.00000
   238  O     c      4.1012      -4.1012      -6.8353      2.40000    1.00000
   239  U     c      5.4682       5.4682       5.4682     -2.51000    1.00000
   240  U     c     -5.4682      -5.4682       5.4682     -2.51000    1.00000
   241  U     c     -5.4682       5.4682       5.4682     -2.51000    1.00000
   242  U     c      5.4682      -5.4682       5.4682     -2.51000    1.00000
   243  U     c      5.4682       5.4682      -5.4682     -2.51000    1.00000
   244  U     c     -5.4682      -5.4682      -5.4682     -2.51000    1.00000
   245  U     c     -5.4682       5.4682      -5.4682     -2.51000    1.00000
   246  U     c      5.4682      -5.4682      -5.4682     -2.51000    1.00000
   247  O     c      1.3671      -1.3671       9.5694      2.40000    1.00000
   248  O     c     -1.3671       1.3671       9.5694      2.40000    1.00000
   249  O     c      1.3671       1.3671       9.5694      2.40000    1.00000
   250  O     c     -1.3671      -1.3671       9.5694      2.40000    1.00000
   251  O     c      6.8353       1.3671       6.8353      2.40000    1.00000
   252  O     c     -1.3671      -6.8353       6.8353      2.40000    1.00000
   253  O     c      1.3671       6.8353       6.8353      2.40000    1.00000
   254  O     c     -6.8353      -1.3671       6.8353      2.40000    1.00000
   255  O     c      1.3671      -6.8353       6.8353      2.40000    1.00000
   256  O     c     -6.8353       1.3671       6.8353      2.40000    1.00000
   257  O     c      6.8353      -1.3671       6.8353      2.40000    1.00000
   258  O     c     -1.3671       6.8353       6.8353      2.40000    1.00000
   259  O     c     -9.5694      -1.3671       1.3671      2.40000    1.00000
   260  O     c     -1.3671      -9.5694       1.3671      2.40000    1.00000
   261  O     c     -1.3671       9.5694       1.3671      2.40000    1.00000
   262  O     c     -9.5694       1.3671       1.3671      2.40000    1.00000
   263  O     c      9.5694      -1.3671       1.3671      2.40000    1.00000
   264  O     c      1.3671      -9.5694       1.3671      2.40000    1.00000
   265  O     c      1.3671       9.5694       1.3671      2.40000    1.00000
   266  O     c      9.5694       1.3671       1.3671      2.40000    1.00000
   267  O     c     -6.8353       6.8353       1.3671      2.40000    1.00000
   268  O     c      6.8353      -6.8353       1.3671      2.40000    1.00000
   269  O     c      6.8353       6.8353       1.3671      2.40000    1.00000
   270  O     c     -6.8353      -6.8353       1.3671      2.40000    1.00000
   271  O     c     -6.8353      -6.8353      -1.3671      2.40000    1.00000
   272  O     c     -6.8353       6.8353      -1.3671      2.40000    1.00000
   273  O     c      6.8353      -6.8353      -1.3671      2.40000    1.00000
   274  O     c      6.8353       6.8353      -1.3671      2.40000    1.00000
   275  O     c     -9.5694       1.3671      -1.3671      2.40000    1.00000
   276  O     c      1.3671      -9.5694      -1.3671      2.40000    1.00000
   277  O     c      1.3671       9.5694      -1.3671      2.40000    1.00000
   278  O     c      9.5694       1.3671      -1.3671      2.40000    1.00000
   279  O     c     -1.3671       9.5694      -1.3671      2.40000    1.00000
   280  O     c      9.5694      -1.3671      -1.3671      2.40000    1.00000
   281  O     c     -9.5694      -1.3671      -1.3671      2.40000    1.00000
   282  O     c     -1.3671      -9.5694      -1.3671      2.40000    1.00000
   283  O     c     -6.8353      -1.3671      -6.8353      2.40000    1.00000
   284  O     c     -1.3671      -6.8353      -6.8353      2.40000    1.00000
   285  O     c      1.3671       6.8353      -6.8353      2.40000    1.00000
   286  O     c      6.8353       1.3671      -6.8353      2.40000    1.00000
   287  O     c     -6.8353       1.3671      -6.8353      2.40000    1.00000
   288  O     c      1.3671      -6.8353      -6.8353      2.40000    1.00000
   289  O     c     -1.3671       6.8353      -6.8353      2.40000    1.00000
   290  O     c      6.8353      -1.3671      -6.8353      2.40000    1.00000
   291  O     c     -1.3671       1.3671      -9.5694      2.40000    1.00000
   292  O     c      1.3671      -1.3671      -9.5694      2.40000    1.00000
   293  O     c      1.3671       1.3671      -9.5694      2.40000    1.00000
   294  O     c     -1.3671      -1.3671      -9.5694      2.40000    1.00000
   295  U     c      5.4682       2.7341       8.2023     -2.51000    1.00000
   296  U     c     -2.7341      -5.4682       8.2023     -2.51000    1.00000
   297  U     c      2.7341       5.4682       8.2023     -2.51000    1.00000
   298  U     c     -5.4682      -2.7341       8.2023     -2.51000    1.00000
   299  U     c      5.4682      -2.7341       8.2023     -2.51000    1.00000
   300  U     c      2.7341      -5.4682       8.2023     -2.51000    1.00000
   301  U     c     -2.7341       5.4682       8.2023     -2.51000    1.00000
   302  U     c     -5.4682       2.7341       8.2023     -2.51000    1.00000
   303  U     c      8.2023       2.7341       5.4682     -2.51000    1.00000
   304  U     c     -2.7341      -8.2023       5.4682     -2.51000    1.00000
   305  U     c      2.7341       8.2023       5.4682     -2.51000    1.00000
   306  U     c     -8.2023      -2.7341       5.4682     -2.51000    1.00000
   307  U     c     -2.7341       8.2023       5.4682     -2.51000    1.00000
   308  U     c      8.2023      -2.7341       5.4682     -2.51000    1.00000
   309  U     c     -8.2023       2.7341       5.4682     -2.51000    1.00000
   310  U     c      2.7341      -8.2023       5.4682     -2.51000    1.00000
   311  U     c      8.2023       5.4682       2.7341     -2.51000    1.00000
   312  U     c     -5.4682      -8.2023       2.7341     -2.51000    1.00000
   313  U     c      5.4682       8.2023       2.7341     -2.51000    1.00000
   314  U     c     -8.2023      -5.4682       2.7341     -2.51000    1.00000
   315  U     c     -5.4682       8.2023       2.7341     -2.51000    1.00000
   316  U     c     -8.2023       5.4682       2.7341     -2.51000    1.00000
   317  U     c      8.2023      -5.4682       2.7341     -2.51000    1.00000
   318  U     c      5.4682      -8.2023       2.7341     -2.51000    1.00000
   319  U     c      5.4682       8.2023      -2.7341     -2.51000    1.00000
   320  U     c     -8.2023      -5.4682      -2.7341     -2.51000    1.00000
   321  U     c     -8.2023       5.4682      -2.7341     -2.51000    1.00000
   322  U     c     -5.4682       8.2023      -2.7341     -2.51000    1.00000
   323  U     c      8.2023       5.4682      -2.7341     -2.51000    1.00000
   324  U     c     -5.4682      -8.2023      -2.7341     -2.51000    1.00000
   325  U     c      5.4682      -8.2023      -2.7341     -2.51000    1.00000
   326  U     c      8.2023      -5.4682      -2.7341     -2.51000    1.00000
   327  U     c      2.7341       8.2023      -5.4682     -2.51000    1.00000
   328  U     c     -8.2023      -2.7341      -5.4682     -2.51000    1.00000
   329  U     c     -8.2023       2.7341      -5.4682     -2.51000    1.00000
   330  U     c      8.2023       2.7341      -5.4682     -2.51000    1.00000
   331  U     c     -2.7341      -8.2023      -5.4682     -2.51000    1.00000
   332  U     c      2.7341      -8.2023      -5.4682     -2.51000    1.00000
   333  U     c     -2.7341       8.2023      -5.4682     -2.51000    1.00000
   334  U     c      8.2023      -2.7341      -5.4682     -2.51000    1.00000
   335  U     c     -5.4682       2.7341      -8.2023     -2.51000    1.00000
   336  U     c     -2.7341       5.4682      -8.2023     -2.51000    1.00000
   337  U     c     -5.4682      -2.7341      -8.2023     -2.51000    1.00000
   338  U     c      2.7341       5.4682      -8.2023     -2.51000    1.00000
   339  U     c     -2.7341      -5.4682      -8.2023     -2.51000    1.00000
   340  U     c      5.4682       2.7341      -8.2023     -2.51000    1.00000
   341  U     c      2.7341      -5.4682      -8.2023     -2.51000    1.00000
   342  U     c      5.4682      -2.7341      -8.2023     -2.51000    1.00000
   343  O     c      4.1012       1.3671       9.5694      2.40000    1.00000
   344  O     c     -1.3671      -4.1012       9.5694      2.40000    1.00000
   345  O     c      1.3671       4.1012       9.5694      2.40000    1.00000
   346  O     c     -4.1012      -1.3671       9.5694      2.40000    1.00000
   347  O     c      4.1012      -1.3671       9.5694      2.40000    1.00000
   348  O     c      1.3671      -4.1012       9.5694      2.40000    1.00000
   349  O     c     -1.3671       4.1012       9.5694      2.40000    1.00000
   350  O     c     -4.1012       1.3671       9.5694      2.40000    1.00000
   351  O     c     -4.1012       6.8353       6.8353      2.40000    1.00000
   352  O     c      6.8353      -4.1012       6.8353      2.40000    1.00000
   353  O     c     -4.1012      -6.8353       6.8353      2.40000    1.00000
   354  O     c     -6.8353      -4.1012       6.8353      2.40000    1.00000
   355  O     c     -6.8353       4.1012       6.8353      2.40000    1.00000
   356  O     c      4.1012      -6.8353       6.8353      2.40000    1.00000
   357  O     c      6.8353       4.1012       6.8353      2.40000    1.00000
   358  O     c      4.1012       6.8353       6.8353      2.40000    1.00000
   359  O     c     -6.8353      -6.8353       4.1012      2.40000    1.00000
   360  O     c     -6.8353       6.8353       4.1012      2.40000    1.00000
   361  O     c      6.8353      -6.8353       4.1012      2.40000    1.00000
   362  O     c      6.8353       6.8353       4.1012      2.40000    1.00000
   363  O     c     -9.5694       1.3671       4.1012      2.40000    1.00000
   364  O     c      1.3671      -9.5694       4.1012      2.40000    1.00000
   365  O     c      1.3671       9.5694       4.1012      2.40000    1.00000
   366  O     c     -9.5694      -1.3671       4.1012      2.40000    1.00000
   367  O     c      9.5694       1.3671       4.1012      2.40000    1.00000
   368  O     c     -1.3671      -9.5694       4.1012      2.40000    1.00000
   369  O     c     -1.3671       9.5694       4.1012      2.40000    1.00000
   370  O     c      9.5694      -1.3671       4.1012      2.40000    1.00000
   371  O     c     -9.5694       4.1012       1.3671      2.40000    1.00000
   372  O     c      4.1012      -9.5694       1.3671      2.40000    1.00000
   373  O     c      4.1012       9.5694       1.3671      2.40000    1.00000
   374  O     c      9.5694       4.1012       1.3671      2.40000    1.00000
   375  O     c     -4.1012       9.5694       1.3671      2.40000    1.00000
   376  O     c      9.5694      -4.1012       1.3671      2.40000    1.00000
   377  O     c     -9.5694      -4.1012       1.3671      2.40000    1.00000
   378  O     c     -4.1012      -9.5694       1.3671      2.40000    1.00000
   379  O     c     -9.5694      -4.1012      -1.3671      2.40000    1.00000
   380  O     c     -4.1012      -9.5694      -1.3671      2.40000    1.00000
   381  O     c     -9.5694       4.1012      -1.3671      2.40000    1.00000
   382  O     c     -4.1012       9.5694      -1.3671      2.40000    1.00000
   383  O     c      4.1012      -9.5694      -1.3671      2.40000    1.00000
   384  O     c      9.5694      -4.1012      -1.3671      2.40000    1.00000
   385  O     c      4.1012       9.5694      -1.3671      2.40000    1.00000
   386  O     c      9.5694       4.1012      -1.3671      2.40000    1.00000
   387  O     c     -9.5694      -1.3671      -4.1012      2.40000    1.00000
   388  O     c     -1.3671      -9.5694      -4.1012      2.40000    1.00000
   389  O     c      1.3671       9.5694      -4.1012      2.40000    1.00000
   390  O     c      9.5694       1.3671      -4.1012      2.40000    1.00000
   391  O     c     -9.5694       1.3671      -4.1012      2.40000    1.00000
   392  O     c     -1.3671       9.5694      -4.1012      2.40000    1.00000
   393  O     c      1.3671      -9.5694      -4.1012      2.40000    1.00000
   394  O     c      9.5694      -1.3671      -4.1012      2.40000    1.00000
   395  O     c      6.8353       6.8353      -4.1012      2.40000    1.00000
   396  O     c     -6.8353       6.8353      -4.1012      2.40000    1.00000
   397  O     c      6.8353      -6.8353      -4.1012      2.40000    1.00000
   398  O     c     -6.8353      -6.8353      -4.1012      2.40000    1.00000
   399  O     c     -6.8353       4.1012      -6.8353      2.40000    1.00000
   400  O     c      4.1012      -6.8353      -6.8353      2.40000    1.00000
   401  O     c     -4.1012       6.8353      -6.8353      2.40000    1.00000
   402  O     c      6.8353      -4.1012      -6.8353      2.40000    1.00000
   403  O     c      4.1012       6.8353      -6.8353      2.40000    1.00000
   404  O     c      6.8353       4.1012      -6.8353      2.40000    1.00000
   405  O     c     -6.8353      -4.1012      -6.8353      2.40000    1.00000
   406  O     c     -4.1012      -6.8353      -6.8353      2.40000    1.00000
   407  O     c     -4.1012      -1.3671      -9.5694      2.40000    1.00000
   408  O     c     -1.3671      -4.1012      -9.5694      2.40000    1.00000
   409  O     c      1.3671       4.1012      -9.5694      2.40000    1.00000
   410  O     c      4.1012       1.3671      -9.5694      2.40000    1.00000
   411  O     c     -1.3671       4.1012      -9.5694      2.40000    1.00000
   412  O     c      4.1012      -1.3671      -9.5694      2.40000    1.00000
   413  O     c     -4.1012       1.3671      -9.5694      2.40000    1.00000
   414  O     c      1.3671      -4.1012      -9.5694      2.40000    1.00000
   415  U     c      0.0000       0.0000      10.9364     -2.51000    1.00000
   416  U     c      0.0000      10.9364      -0.0000     -2.51000    1.00000
   417  U     c    -10.9364       0.0000      -0.0000     -2.51000    1.00000
   418  U     c     10.9364       0.0000      -0.0000     -2.51000    1.00000
   419  U     c      0.0000     -10.9364      -0.0000     -2.51000    1.00000
   420  U     c      0.0000       0.0000     -10.9364     -2.51000    1.00000
   421  O     c      4.1012      -4.1012       9.5694      2.40000    1.00000
   422  O     c     -4.1012       4.1012       9.5694      2.40000    1.00000
   423  O     c     -4.1012      -4.1012       9.5694      2.40000    1.00000
   424  O     c      4.1012       4.1012       9.5694      2.40000    1.00000
   425  O     c     -4.1012      -9.5694       4.1012      2.40000    1.00000
   426  O     c     -9.5694      -4.1012       4.1012      2.40000    1.00000
   427  O     c     -4.1012       9.5694       4.1012      2.40000    1.00000
   428  O     c     -9.5694       4.1012       4.1012      2.40000    1.00000
   429  O     c      9.5694      -4.1012       4.1012      2.40000    1.00000
   430  O     c      4.1012      -9.5694       4.1012      2.40000    1.00000
   431  O     c      9.5694       4.1012       4.1012      2.40000    1.00000
   432  O     c      4.1012       9.5694       4.1012      2.40000    1.00000
   433  O     c     -9.5694       4.1012      -4.1012      2.40000    1.00000
   434  O     c      4.1012      -9.5694      -4.1012      2.40000    1.00000
   435  O     c     -4.1012       9.5694      -4.1012      2.40000    1.00000
   436  O     c      9.5694      -4.1012      -4.1012      2.40000    1.00000
   437  O     c      4.1012       9.5694      -4.1012      2.40000    1.00000
   438  O     c      9.5694       4.1012      -4.1012      2.40000    1.00000
   439  O     c     -9.5694      -4.1012      -4.1012      2.40000    1.00000
   440  O     c     -4.1012      -9.5694      -4.1012      2.40000    1.00000
   441  O     c     -4.1012       4.1012      -9.5694      2.40000    1.00000
   442  O     c      4.1012      -4.1012      -9.5694      2.40000    1.00000
   443  O     c      4.1012       4.1012      -9.5694      2.40000    1.00000
   444  O     c     -4.1012      -4.1012      -9.5694      2.40000    1.00000
   445  U     c      2.7341       2.7341      10.9364     -2.51000    1.00000
   446  U     c     -2.7341      -2.7341      10.9364     -2.51000    1.00000
   447  U     c      2.7341      -2.7341      10.9364     -2.51000    1.00000
   448  U     c     -2.7341       2.7341      10.9364     -2.51000    1.00000
   449  U     c      8.2023       0.0000       8.2023     -2.51000    1.00000
   450  U     c      0.0000      -8.2023       8.2023     -2.51000    1.00000
   451  U     c      0.0000       8.2023       8.2023     -2.51000    1.00000
   452  U     c     -8.2023       0.0000       8.2023     -2.51000    1.00000
   453  U     c      2.7341      10.9364       2.7341     -2.51000    1.00000
   454  U     c    -10.9364      -2.7341       2.7341     -2.51000    1.00000
   455  U     c     -2.7341      10.9364       2.7341     -2.51000    1.00000
   456  U     c    -10.9364       2.7341       2.7341     -2.51000    1.00000
   457  U     c     10.9364       2.7341       2.7341     -2.51000    1.00000
   458  U     c     -2.7341     -10.9364       2.7341     -2.51000    1.00000
   459  U     c     10.9364      -2.7341       2.7341     -2.51000    1.00000
   460  U     c      2.7341     -10.9364       2.7341     -2.51000    1.00000
   461  U     c      8.2023       8.2023      -0.0000     -2.51000    1.00000
   462  U     c     -8.2023      -8.2023      -0.0000     -2.51000    1.00000
   463  U     c     -8.2023       8.2023      -0.0000     -2.51000    1.00000
   464  U     c      8.2023      -8.2023      -0.0000     -2.51000    1.00000
   465  U     c      2.7341      10.9364      -2.7341     -2.51000    1.00000
   466  U     c    -10.9364      -2.7341      -2.7341     -2.51000    1.00000
   467  U     c    -10.9364       2.7341      -2.7341     -2.51000    1.00000
   468  U     c     10.9364       2.7341      -2.7341     -2.51000    1.00000
   469  U     c     -2.7341     -10.9364      -2.7341     -2.51000    1.00000
   470  U     c      2.7341     -10.9364      -2.7341     -2.51000    1.00000
   471  U     c     -2.7341      10.9364      -2.7341     -2.51000    1.00000
   472  U     c     10.9364      -2.7341      -2.7341     -2.51000    1.00000
   473  U     c     -8.2023       0.0000      -8.2023     -2.51000    1.00000
   474  U     c     -0.0000       8.2023      -8.2023     -2.51000    1.00000
   475  U     c      0.0000      -8.2023      -8.2023     -2.51000    1.00000
   476  U     c      8.2023      -0.0000      -8.2023     -2.51000    1.00000
   477  U     c     -2.7341       2.7341     -10.9364     -2.51000    1.00000
   478  U     c     -2.7341      -2.7341     -10.9364     -2.51000    1.00000
   479  U     c      2.7341       2.7341     -10.9364     -2.51000    1.00000
   480  U     c      2.7341      -2.7341     -10.9364     -2.51000    1.00000
   481  O     c      6.8353      -1.3671       9.5694      2.40000    1.00000
   482  O     c     -1.3671       6.8353       9.5694      2.40000    1.00000
   483  O     c      1.3671      -6.8353       9.5694      2.40000    1.00000
   484  O     c     -6.8353       1.3671       9.5694      2.40000    1.00000
   485  O     c     -1.3671      -6.8353       9.5694      2.40000    1.00000
   486  O     c     -6.8353      -1.3671       9.5694      2.40000    1.00000
   487  O     c      6.8353       1.3671       9.5694      2.40000    1.00000
   488  O     c      1.3671       6.8353       9.5694      2.40000    1.00000
   489  O     c     -1.3671      -9.5694       6.8353      2.40000    1.00000
   490  O     c     -9.5694      -1.3671       6.8353      2.40000    1.00000
   491  O     c     -1.3671       9.5694       6.8353      2.40000    1.00000
   492  O     c     -9.5694       1.3671       6.8353      2.40000    1.00000
   493  O     c      9.5694      -1.3671       6.8353      2.40000    1.00000
   494  O     c      1.3671      -9.5694       6.8353      2.40000    1.00000
   495  O     c      9.5694       1.3671       6.8353      2.40000    1.00000
   496  O     c      1.3671       9.5694       6.8353      2.40000    1.00000
   497  O     c      6.8353       6.8353       6.8353      2.40000    1.00000
   498  O     c     -6.8353      -6.8353       6.8353      2.40000    1.00000
   499  O     c     -6.8353       6.8353       6.8353      2.40000    1.00000
   500  O     c      6.8353      -6.8353       6.8353      2.40000    1.00000
   501  O     c     -6.8353      -9.5694       1.3671      2.40000    1.00000
   502  O     c     -9.5694      -6.8353       1.3671      2.40000    1.00000
   503  O     c     -9.5694       6.8353       1.3671      2.40000    1.00000
   504  O     c     -6.8353       9.5694       1.3671      2.40000    1.00000
   505  O     c      6.8353      -9.5694       1.3671      2.40000    1.00000
   506  O     c      9.5694      -6.8353       1.3671      2.40000    1.00000
   507  O     c      9.5694       6.8353       1.3671      2.40000    1.00000
   508  O     c      6.8353       9.5694       1.3671      2.40000    1.00000
   509  O     c     -9.5694       6.8353      -1.3671      2.40000    1.00000
   510  O     c      6.8353      -9.5694      -1.3671      2.40000    1.00000
   511  O     c      6.8353       9.5694      -1.3671      2.40000    1.00000
   512  O     c      9.5694       6.8353      -1.3671      2.40000    1.00000
   513  O     c     -6.8353       9.5694      -1.3671      2.40000    1.00000
   514  O     c      9.5694      -6.8353      -1.3671      2.40000    1.00000
   515  O     c     -9.5694      -6.8353      -1.3671      2.40000    1.00000
   516  O     c     -6.8353      -9.5694      -1.3671      2.40000    1.00000
   517  O     c     -9.5694       1.3671      -6.8353      2.40000    1.00000
   518  O     c      1.3671      -9.5694      -6.8353      2.40000    1.00000
   519  O     c     -1.3671       9.5694      -6.8353      2.40000    1.00000
   520  O     c      9.5694      -1.3671      -6.8353      2.40000    1.00000
   521  O     c      1.3671       9.5694      -6.8353      2.40000    1.00000
   522  O     c      9.5694       1.3671      -6.8353      2.40000    1.00000
   523  O     c     -9.5694      -1.3671      -6.8353      2.40000    1.00000
   524  O     c     -1.3671      -9.5694      -6.8353      2.40000    1.00000
   525  O     c     -6.8353      -6.8353      -6.8353      2.40000    1.00000
   526  O     c      6.8353       6.8353      -6.8353      2.40000    1.00000
   527  O     c     -6.8353       6.8353      -6.8353      2.40000    1.00000
   528  O     c      6.8353      -6.8353      -6.8353      2.40000    1.00000
   529  O     c     -6.8353       1.3671      -9.5694      2.40000    1.00000
   530  O     c     -1.3671       6.8353      -9.5694      2.40000    1.00000
   531  O     c      1.3671      -6.8353      -9.5694      2.40000    1.00000
   532  O     c      6.8353      -1.3671      -9.5694      2.40000    1.00000
   533  O     c      1.3671       6.8353      -9.5694      2.40000    1.00000
   534  O     c      6.8353       1.3671      -9.5694      2.40000    1.00000
   535  O     c     -6.8353      -1.3671      -9.5694      2.40000    1.00000
   536  O     c     -1.3671      -6.8353      -9.5694      2.40000    1.00000
   537  U     c      5.4682       0.0000      10.9364     -2.51000    1.00000
   538  U     c      0.0000      -5.4682      10.9364     -2.51000    1.00000
   539  U     c      0.0000       5.4682      10.9364     -2.51000    1.00000
   540  U     c     -5.4682       0.0000      10.9364     -2.51000    1.00000
   541  U     c      0.0000      10.9364       5.4682     -2.51000    1.00000
   542  U     c    -10.9364       0.0000       5.4682     -2.51000    1.00000
   543  U     c     10.9364       0.0000       5.4682     -2.51000    1.00000
   544  U     c      0.0000     -10.9364       5.4682     -2.51000    1.00000
   545  U     c      5.4682      10.9364      -0.0000     -2.51000    1.00000
   546  U     c    -10.9364      -5.4682      -0.0000     -2.51000    1.00000
   547  U     c     10.9364       5.4682      -0.0000     -2.51000    1.00000
   548  U     c     -5.4682     -10.9364      -0.0000     -2.51000    1.00000
   549  U     c     -5.4682      10.9364      -0.0000     -2.51000    1.00000
   550  U     c    -10.9364       5.4682      -0.0000     -2.51000    1.00000
   551  U     c     10.9364      -5.4682      -0.0000     -2.51000    1.00000
   552  U     c      5.4682     -10.9364      -0.0000     -2.51000    1.00000
   553  U     c     -0.0000      10.9364      -5.4682     -2.51000    1.00000
   554  U     c    -10.9364       0.0000      -5.4682     -2.51000    1.00000
   555  U     c     10.9364      -0.0000      -5.4682     -2.51000    1.00000
   556  U     c      0.0000     -10.9364      -5.4682     -2.51000    1.00000
   557  U     c     -0.0000       5.4682     -10.9364     -2.51000    1.00000
   558  U     c      5.4682      -0.0000     -10.9364     -2.51000    1.00000
   559  U     c     -5.4682       0.0000     -10.9364     -2.51000    1.00000
   560  U     c      0.0000      -5.4682     -10.9364     -2.51000    1.00000
   561  O     c      1.3671       1.3671      12.3035      2.40000    1.00000
   562  O     c     -1.3671      -1.3671      12.3035      2.40000    1.00000
   563  O     c      1.3671      -1.3671      12.3035      2.40000    1.00000
   564  O     c     -1.3671       1.3671      12.3035      2.40000    1.00000
   565  O     c      6.8353       4.1012       9.5694      2.40000    1.00000
   566  O     c     -4.1012      -6.8353       9.5694      2.40000    1.00000
   567  O     c      4.1012       6.8353       9.5694      2.40000    1.00000
   568  O     c     -6.8353      -4.1012       9.5694      2.40000    1.00000
   569  O     c      6.8353      -4.1012       9.5694      2.40000    1.00000
   570  O     c      4.1012      -6.8353       9.5694      2.40000    1.00000
   571  O     c     -4.1012       6.8353       9.5694      2.40000    1.00000
   572  O     c     -6.8353       4.1012       9.5694      2.40000    1.00000
   573  O     c      9.5694       4.1012       6.8353      2.40000    1.00000
   574  O     c     -4.1012      -9.5694       6.8353      2.40000    1.00000
   575  O     c      4.1012       9.5694       6.8353      2.40000    1.00000
   576  O     c     -9.5694      -4.1012       6.8353      2.40000    1.00000
   577  O     c     -4.1012       9.5694       6.8353      2.40000    1.00000
   578  O     c     -9.5694       4.1012       6.8353      2.40000    1.00000
   579  O     c      9.5694      -4.1012       6.8353      2.40000    1.00000
   580  O     c      4.1012      -9.5694       6.8353      2.40000    1.00000
   581  O     c     -9.5694       6.8353       4.1012      2.40000    1.00000
   582  O     c      6.8353      -9.5694       4.1012      2.40000    1.00000
   583  O     c     -6.8353       9.5694       4.1012      2.40000    1.00000
   584  O     c      9.5694      -6.8353       4.1012      2.40000    1.00000
   585  O     c      9.5694       6.8353       4.1012      2.40000    1.00000
   586  O     c     -6.8353      -9.5694       4.1012      2.40000    1.00000
   587  O     c      6.8353       9.5694       4.1012      2.40000    1.00000
   588  O     c     -9.5694      -6.8353       4.1012      2.40000    1.00000
   589  O     c    -12.3035       1.3671       1.3671      2.40000    1.00000
   590  O     c      1.3671     -12.3035       1.3671      2.40000    1.00000
   591  O     c      1.3671      12.3035       1.3671      2.40000    1.00000
   592  O     c    -12.3035      -1.3671       1.3671      2.40000    1.00000
   593  O     c     12.3035       1.3671       1.3671      2.40000    1.00000
   594  O     c     -1.3671     -12.3035       1.3671      2.40000    1.00000
   595  O     c     -1.3671      12.3035       1.3671      2.40000    1.00000
   596  O     c     12.3035      -1.3671       1.3671      2.40000    1.00000
   597  O     c    -12.3035      -1.3671      -1.3671      2.40000    1.00000
   598  O     c     -1.3671     -12.3035      -1.3671      2.40000    1.00000
   599  O     c     -1.3671      12.3035      -1.3671      2.40000    1.00000
   600  O     c    -12.3035       1.3671      -1.3671      2.40000    1.00000
   601  O     c     12.3035      -1.3671      -1.3671      2.40000    1.00000
   602  O     c      1.3671     -12.3035      -1.3671      2.40000    1.00000
   603  O     c      1.3671      12.3035      -1.3671      2.40000    1.00000
   604  O     c     12.3035       1.3671      -1.3671      2.40000    1.00000
   605  O     c     -9.5694      -6.8353      -4.1012      2.40000    1.00000
   606  O     c     -6.8353      -9.5694      -4.1012      2.40000    1.00000
   607  O     c     -9.5694       6.8353      -4.1012      2.40000    1.00000
   608  O     c     -6.8353       9.5694      -4.1012      2.40000    1.00000
   609  O     c      6.8353      -9.5694      -4.1012      2.40000    1.00000
   610  O     c      9.5694      -6.8353      -4.1012      2.40000    1.00000
   611  O     c      6.8353       9.5694      -4.1012      2.40000    1.00000
   612  O     c      9.5694       6.8353      -4.1012      2.40000    1.00000
   613  O     c     -9.5694      -4.1012      -6.8353      2.40000    1.00000
   614  O     c     -4.1012      -9.5694      -6.8353      2.40000    1.00000
   615  O     c      4.1012       9.5694      -6.8353      2.40000    1.00000
   616  O     c      9.5694       4.1012      -6.8353      2.40000    1.00000
   617  O     c     -9.5694       4.1012      -6.8353      2.40000    1.00000
   618  O     c     -4.1012       9.5694      -6.8353      2.40000    1.00000
   619  O     c      4.1012      -9.5694      -6.8353      2.40000    1.00000
   620  O     c      9.5694      -4.1012      -6.8353      2.40000    1.00000
   621  O     c     -6.8353      -4.1012      -9.5694      2.40000    1.00000
   622  O     c     -4.1012      -6.8353      -9.5694      2.40000    1.00000
   623  O     c      4.1012       6.8353      -9.5694      2.40000    1.00000
   624  O     c      6.8353       4.1012      -9.5694      2.40000    1.00000
   625  O     c     -6.8353       4.1012      -9.5694      2.40000    1.00000
   626  O     c     -4.1012       6.8353      -9.5694      2.40000    1.00000
   627  O     c      4.1012      -6.8353      -9.5694      2.40000    1.00000
   628  O     c      6.8353      -4.1012      -9.5694      2.40000    1.00000
   629  O     c     -1.3671      -1.3671     -12.3035      2.40000    1.00000
   630  O     c      1.3671       1.3671     -12.3035      2.40000    1.00000
   631  O     c     -1.3671       1.3671     -12.3035      2.40000    1.00000
   632  O     c      1.3671      -1.3671     -12.3035      2.40000    1.00000
   633  U     c      8.2023       5.4682       8.2023     -2.51000    1.00000
   634  U     c     -5.4682      -8.2023       8.2023     -2.51000    1.00000
   635  U     c      5.4682       8.2023       8.2023     -2.51000    1.00000
   636  U     c     -8.2023      -5.4682       8.2023     -2.51000    1.00000
   637  U     c     -5.4682       8.2023       8.2023     -2.51000    1.00000
   638  U     c     -8.2023       5.4682       8.2023     -2.51000    1.00000
   639  U     c      8.2023      -5.4682       8.2023     -2.51000    1.00000
   640  U     c      5.4682      -8.2023       8.2023     -2.51000    1.00000
   641  U     c      8.2023       8.2023       5.4682     -2.51000    1.00000
   642  U     c     -8.2023      -8.2023       5.4682     -2.51000    1.00000
   643  U     c     -8.2023       8.2023       5.4682     -2.51000    1.00000
   644  U     c      8.2023      -8.2023       5.4682     -2.51000    1.00000
   645  U     c     -8.2023       8.2023      -5.4682     -2.51000    1.00000
   646  U     c      8.2023       8.2023      -5.4682     -2.51000    1.00000
   647  U     c     -8.2023      -8.2023      -5.4682     -2.51000    1.00000
   648  U     c      8.2023      -8.2023      -5.4682     -2.51000    1.00000
   649  U     c     -8.2023       5.4682      -8.2023     -2.51000    1.00000
   650  U     c     -5.4682       8.2023      -8.2023     -2.51000    1.00000
   651  U     c      5.4682       8.2023      -8.2023     -2.51000    1.00000
   652  U     c     -8.2023      -5.4682      -8.2023     -2.51000    1.00000
   653  U     c      8.2023       5.4682      -8.2023     -2.51000    1.00000
   654  U     c     -5.4682      -8.2023      -8.2023     -2.51000    1.00000
   655  U     c      5.4682      -8.2023      -8.2023     -2.51000    1.00000
   656  U     c      8.2023      -5.4682      -8.2023     -2.51000    1.00000
   657  O     c      4.1012      -1.3671      12.3035      2.40000    1.00000
   658  O     c      1.3671      -4.1012      12.3035      2.40000    1.00000
   659  O     c     -1.3671       4.1012      12.3035      2.40000    1.00000
   660  O     c     -4.1012       1.3671      12.3035      2.40000    1.00000
   661  O     c      4.1012       1.3671      12.3035      2.40000    1.00000
   662  O     c     -1.3671      -4.1012      12.3035      2.40000    1.00000
   663  O     c      1.3671       4.1012      12.3035      2.40000    1.00000
   664  O     c     -4.1012      -1.3671      12.3035      2.40000    1.00000
   665  O     c    -12.3035      -1.3671       4.1012      2.40000    1.00000
   666  O     c     -1.3671     -12.3035       4.1012      2.40000    1.00000
   667  O     c     -1.3671      12.3035       4.1012      2.40000    1.00000
   668  O     c    -12.3035       1.3671       4.1012      2.40000    1.00000
   669  O     c     12.3035      -1.3671       4.1012      2.40000    1.00000
   670  O     c      1.3671     -12.3035       4.1012      2.40000    1.00000
   671  O     c      1.3671      12.3035       4.1012      2.40000    1.00000
   672  O     c     12.3035       1.3671       4.1012      2.40000    1.00000
   673  O     c    -12.3035      -4.1012       1.3671      2.40000    1.00000
   674  O     c     -4.1012     -12.3035       1.3671      2.40000    1.00000
   675  O     c     -4.1012      12.3035       1.3671      2.40000    1.00000
   676  O     c    -12.3035       4.1012       1.3671      2.40000    1.00000
   677  O     c     12.3035      -4.1012       1.3671      2.40000    1.00000
   678  O     c      4.1012     -12.3035       1.3671      2.40000    1.00000
   679  O     c      4.1012      12.3035       1.3671      2.40000    1.00000
   680  O     c     12.3035       4.1012       1.3671      2.40000    1.00000
   681  O     c    -12.3035       4.1012      -1.3671      2.40000    1.00000
   682  O     c      4.1012     -12.3035      -1.3671      2.40000    1.00000
   683  O     c      4.1012      12.3035      -1.3671      2.40000    1.00000
   684  O     c    -12.3035      -4.1012      -1.3671      2.40000    1.00000
   685  O     c     12.3035       4.1012      -1.3671      2.40000    1.00000
   686  O     c     -4.1012     -12.3035      -1.3671      2.40000    1.00000
   687  O     c     -4.1012      12.3035      -1.3671      2.40000    1.00000
   688  O     c     12.3035      -4.1012      -1.3671      2.40000    1.00000
   689  O     c    -12.3035       1.3671      -4.1012      2.40000    1.00000
   690  O     c      1.3671     -12.3035      -4.1012      2.40000    1.00000
   691  O     c      1.3671      12.3035      -4.1012      2.40000    1.00000
   692  O     c    -12.3035      -1.3671      -4.1012      2.40000    1.00000
   693  O     c     12.3035       1.3671      -4.1012      2.40000    1.00000
   694  O     c     -1.3671     -12.3035      -4.1012      2.40000    1.00000
   695  O     c     -1.3671      12.3035      -4.1012      2.40000    1.00000
   696  O     c     12.3035      -1.3671      -4.1012      2.40000    1.00000
   697  O     c     -4.1012       1.3671     -12.3035      2.40000    1.00000
   698  O     c     -1.3671       4.1012     -12.3035      2.40000    1.00000
   699  O     c      1.3671      -4.1012     -12.3035      2.40000    1.00000
   700  O     c      4.1012      -1.3671     -12.3035      2.40000    1.00000
[...]
    248 z         -8.202334     -8.197028     0.005306    Cartesian   -0.06
    249 x         -2.734111     -2.733791     0.000320    Cartesian   -0.01
    249 y          2.734111      2.733791    -0.000320    Cartesian   -0.01
    249 z        -10.936445    -10.934010     0.002435    Cartesian   -0.02
    250 x          6.835278      6.839587     0.004309    Cartesian    0.06
    250 y         -1.367056     -1.365409     0.001647    Cartesian   -0.12
    250 z          9.569389      9.575505     0.006115    Cartesian    0.06
    251 x         -1.367056     -1.365401     0.001654    Cartesian   -0.12
    251 y         -9.569389     -9.575782    -0.006392    Cartesian    0.07
    251 z          6.835278      6.839325     0.004047    Cartesian    0.06
    252 x          6.835278      6.842716     0.007438    Cartesian    0.11
    252 y          6.835278      6.842716     0.007438    Cartesian    0.11
    252 z          6.835278      6.842434     0.007156    Cartesian    0.10
    253 x         -6.835278     -6.839557    -0.004278    Cartesian    0.06
    253 y         -9.569389     -9.575740    -0.006351    Cartesian    0.07
    253 z          1.367056      1.365092    -0.001964    Cartesian   -0.14
    254 x         -9.569389     -9.575741    -0.006352    Cartesian    0.07
    254 y          6.835278      6.839599     0.004321    Cartesian    0.06
    254 z         -1.367056     -1.365862     0.001193    Cartesian   -0.09
    255 x         -9.569389     -9.575663    -0.006274    Cartesian    0.07
    255 y          1.367056      1.365564    -0.001491    Cartesian   -0.11
    255 z         -6.835278     -6.840587    -0.005309    Cartesian    0.08
    256 x         -6.835278     -6.842362    -0.007084    Cartesian    0.10
    256 y         -6.835278     -6.842362    -0.007084    Cartesian    0.10
    256 z         -6.835278     -6.843704    -0.008426    Cartesian    0.12
    257 x         -6.835278     -6.840171    -0.004893    Cartesian    0.07
    257 y          1.367056      1.365804    -0.001251    Cartesian   -0.09
    257 z         -9.569389     -9.579679    -0.010289    Cartesian    0.11
    258 x          5.468223      5.467937    -0.000286    Cartesian   -0.01
    258 y          0.000000      0.000000     0.000000    Cartesian    0.00
    258 z         10.936445     10.928222    -0.008223    Cartesian   -0.08
    259 x          0.000000      0.000000     0.000000    Cartesian    0.00
    259 y         10.936445     10.928468    -0.007977    Cartesian   -0.07
    259 z          5.468223      5.467631    -0.000591    Cartesian   -0.01
    260 x          5.468223      5.467908    -0.000315    Cartesian   -0.01
    260 y         10.936445     10.928383    -0.008062    Cartesian   -0.07
    260 z         -0.000000     -0.000461    -0.000461    Cartesian *******
    261 x         -0.000000     -0.000000     0.000000    Cartesian    0.00
    261 y         10.936445     10.928244    -0.008201    Cartesian   -0.07
    261 z         -5.468223     -5.468814    -0.000591    Cartesian    0.01
    262 x         -0.000000     -0.000000     0.000000    Cartesian    0.00
    262 y          5.468223      5.466240    -0.001983    Cartesian   -0.04
    262 z        -10.936445    -10.935053     0.001392    Cartesian   -0.01
    263 x          1.367056      1.369728     0.002672    Cartesian    0.20
    263 y          1.367056      1.369728     0.002672    Cartesian    0.20
    263 z         12.303501     12.318448     0.014947    Cartesian    0.12
    264 x          6.835278      6.840676     0.005397    Cartesian    0.08
    264 y          4.101167      4.106230     0.005064    Cartesian    0.12
    264 z          9.569389      9.574148     0.004759    Cartesian    0.05
    265 x          9.569389      9.574407     0.005018    Cartesian    0.05
    265 y          4.101167      4.106243     0.005076    Cartesian    0.12
    265 z          6.835278      6.840465     0.005187    Cartesian    0.08
    266 x         -9.569389     -9.574410    -0.005021    Cartesian    0.05
    266 y          6.835278      6.840691     0.005413    Cartesian    0.08
    266 z          4.101167      4.106006     0.004839    Cartesian    0.12
    267 x        -12.303501    -12.318565    -0.015065    Cartesian    0.12
    267 y          1.367056      1.369762     0.002706    Cartesian    0.20
    267 z          1.367056      1.369548     0.002493    Cartesian    0.18
    268 x        -12.303501    -12.318552    -0.015052    Cartesian    0.12
    268 y         -1.367056     -1.369681    -0.002626    Cartesian    0.19
    268 z         -1.367056     -1.369935    -0.002879    Cartesian    0.21
    269 x         -9.569389     -9.574252    -0.004862    Cartesian    0.05
    269 y         -6.835278     -6.840578    -0.005300    Cartesian    0.08
    269 z         -4.101167     -4.106695    -0.005528    Cartesian    0.13
    270 x         -9.569389     -9.574242    -0.004852    Cartesian    0.05
    270 y         -4.101167     -4.106021    -0.004854    Cartesian    0.12
    270 z         -6.835278     -6.841273    -0.005995    Cartesian    0.09
    271 x         -6.835278     -6.840073    -0.004795    Cartesian    0.07
    271 y         -4.101167     -4.105608    -0.004441    Cartesian    0.11
    271 z         -9.569389     -9.579865    -0.010475    Cartesian    0.11
    272 x         -1.367056     -1.369897    -0.002841    Cartesian    0.21
    272 y         -1.367056     -1.369897    -0.002841    Cartesian    0.21
    272 z        -12.303501    -12.319107    -0.015606    Cartesian    0.13
    273 x          8.202334      8.197647    -0.004687    Cartesian   -0.06
    273 y          5.468223      5.466909    -0.001314    Cartesian   -0.02
    273 z          8.202334      8.197401    -0.004933    Cartesian   -0.06
    274 x          8.202334      8.197645    -0.004689    Cartesian   -0.06
    274 y          8.202334      8.197645    -0.004689    Cartesian   -0.06
    274 z          5.468223      5.466665    -0.001558    Cartesian   -0.03
    275 x         -8.202334     -8.197410     0.004924    Cartesian   -0.06
    275 y          8.202334      8.197410    -0.004924    Cartesian   -0.06
    275 z         -5.468223     -5.467662     0.000561    Cartesian   -0.01
    276 x         -8.202334     -8.196847     0.005487    Cartesian   -0.07
    276 y          5.468223      5.466926    -0.001297    Cartesian   -0.02
    276 z         -8.202334     -8.199615     0.002719    Cartesian   -0.03
    277 x          4.101167      4.106124     0.004957    Cartesian    0.12
    277 y         -1.367056     -1.368546    -0.001490    Cartesian    0.11
    277 z         12.303501     12.305786     0.002285    Cartesian    0.02
    278 x        -12.303501    -12.305934    -0.002433    Cartesian    0.02
    278 y         -1.367056     -1.368522    -0.001467    Cartesian    0.11
    278 z          4.101167      4.106011     0.004844    Cartesian    0.12
    279 x        -12.303501    -12.305908    -0.002408    Cartesian    0.02
    279 y         -4.101167     -4.106100    -0.004934    Cartesian    0.12
    279 z          1.367056      1.368395     0.001339    Cartesian    0.10
    280 x        -12.303501    -12.305902    -0.002401    Cartesian    0.02
    280 y          4.101167      4.106185     0.005019    Cartesian    0.12
    280 z         -1.367056     -1.368752    -0.001696    Cartesian    0.12
    281 x        -12.303501    -12.305905    -0.002405    Cartesian    0.02
    281 y          1.367056      1.368633     0.001577    Cartesian    0.12
    281 z         -4.101167     -4.106340    -0.005173    Cartesian    0.13
    282 x         -4.101167     -4.104896    -0.003729    Cartesian    0.09
    282 y          1.367056      1.367202     0.000146    Cartesian    0.01
    282 z        -12.303501    -12.308821    -0.005320    Cartesian    0.04
    283 x          5.468223      5.467746    -0.000477    Cartesian   -0.01
    283 y         -5.468223     -5.467746     0.000477    Cartesian   -0.01
    283 z         10.936445     10.928308    -0.008137    Cartesian   -0.07
    284 x         10.936445     10.928502    -0.007943    Cartesian   -0.07
    284 y          5.468223      5.467749    -0.000474    Cartesian   -0.01
    284 z          5.468223      5.467553    -0.000670    Cartesian   -0.01
    285 x          5.468223      5.467686    -0.000537    Cartesian   -0.01
    285 y         10.936445     10.928182    -0.008263    Cartesian   -0.08
    285 z         -5.468223     -5.468361    -0.000139    Cartesian    0.00
    286 x         -5.468223     -5.466121     0.002101    Cartesian   -0.04
    286 y          5.468223      5.466121    -0.002101    Cartesian   -0.04
    286 z        -10.936445    -10.934010     0.002435    Cartesian   -0.02
    287 x          4.101167      4.104339     0.003172    Cartesian    0.08
    287 y          4.101167      4.104339     0.003172    Cartesian    0.08
    287 z         12.303501     12.305371     0.001870    Cartesian    0.02
    288 x          9.569389      9.574527     0.005138    Cartesian    0.05
    288 y          1.367056      1.371595     0.004539    Cartesian    0.33
    288 z          9.569389      9.574434     0.005045    Cartesian    0.05
    289 x         -6.835278     -6.838896    -0.003618    Cartesian    0.05
    289 y          6.835278      6.838896     0.003618    Cartesian    0.05
    289 z          9.569389      9.575533     0.006144    Cartesian    0.06
    290 x         -6.835278     -6.838896    -0.003618    Cartesian    0.05
    290 y         -9.569389     -9.575632    -0.006243    Cartesian    0.07
    290 z          6.835278      6.838826     0.003548    Cartesian    0.05
    291 x        -12.303501    -12.305504    -0.002003    Cartesian    0.02
    291 y          4.101167      4.104367     0.003200    Cartesian    0.08
    291 z          4.101167      4.104240     0.003073    Cartesian    0.07
    292 x         -9.569389     -9.574578    -0.005189    Cartesian    0.05
    292 y          9.569389      9.574578     0.005189    Cartesian    0.05
    292 z          1.367056      1.371533     0.004477    Cartesian    0.33
    293 x         -9.569389     -9.574491    -0.005102    Cartesian    0.05
    293 y         -9.569389     -9.574491    -0.005102    Cartesian    0.05
    293 z         -1.367056     -1.371676    -0.004620    Cartesian    0.34
    294 x        -12.303501    -12.305408    -0.001908    Cartesian    0.02
    294 y         -4.101167     -4.104281    -0.003114    Cartesian    0.08
    294 z         -4.101167     -4.104544    -0.003377    Cartesian    0.08
    295 x         -9.569389     -9.575500    -0.006110    Cartesian    0.06
    295 y          6.835278      6.839008     0.003730    Cartesian    0.05
    295 z         -6.835278     -6.839403    -0.004125    Cartesian    0.06
    296 x         -9.569389     -9.574543    -0.005154    Cartesian    0.05
    296 y         -1.367056     -1.371527    -0.004471    Cartesian    0.33
    296 z         -9.569389     -9.575327    -0.005937    Cartesian    0.06
    297 x          6.835278      6.839162     0.003884    Cartesian    0.06
    297 y          6.835278      6.839162     0.003884    Cartesian    0.06
    297 z         -9.569389     -9.575992    -0.006602    Cartesian    0.07
    298 x         -4.101167     -4.106915    -0.005748    Cartesian    0.14
    298 y         -4.101167     -4.106915    -0.005748    Cartesian    0.14
    298 z        -12.303501    -12.312980    -0.009479    Cartesian    0.08
    299 x          2.734111      2.731237    -0.002875    Cartesian   -0.11
    299 y          0.000000      0.000000     0.000000    Cartesian    0.00
    299 z         13.670556     13.662866    -0.007691    Cartesian   -0.06
    300 x          8.202334      8.198398    -0.003936    Cartesian   -0.05
    300 y         -2.734111     -2.732881     0.001230    Cartesian   -0.04
    300 z         10.936445     10.928020    -0.008425    Cartesian   -0.08
    301 x         10.936445     10.928179    -0.008266    Cartesian   -0.08
    301 y          2.734111      2.732880    -0.001231    Cartesian   -0.05
    301 z          8.202334      8.198253    -0.004081    Cartesian   -0.05
    302 x         10.936445     10.928139    -0.008306    Cartesian   -0.08
    302 y          8.202334      8.198372    -0.003962    Cartesian   -0.05
    302 z          2.734111      2.732726    -0.001386    Cartesian   -0.05
    303 x          0.000000      0.000000     0.000000    Cartesian    0.00
    303 y         13.670556     13.662923    -0.007634    Cartesian   -0.06
    303 z          2.734111      2.731118    -0.002994    Cartesian   -0.11
    304 x          2.734111      2.731237    -0.002874    Cartesian   -0.11
    304 y         13.670556     13.662905    -0.007651    Cartesian   -0.06
    304 z         -0.000000     -0.000156    -0.000156    Cartesian *******
    305 x          8.202334      8.198366    -0.003967    Cartesian   -0.05
    305 y         10.936445     10.928101    -0.008344    Cartesian   -0.08
    305 z         -2.734111     -2.733140     0.000971    Cartesian   -0.04
    306 x         -0.000000     -0.000000     0.000000    Cartesian    0.00
    306 y         13.670556     13.662873    -0.007683    Cartesian   -0.06
    306 z         -2.734111     -2.731418     0.002693    Cartesian   -0.10
    307 x          2.734111      2.732977    -0.001134    Cartesian   -0.04
    307 y         10.936445     10.927618    -0.008827    Cartesian   -0.08
    307 z         -8.202334     -8.198938     0.003396    Cartesian   -0.04
    308 x         -8.202334     -8.197244     0.005090    Cartesian   -0.06
    308 y          2.734111      2.732492    -0.001619    Cartesian   -0.06
    308 z        -10.936445    -10.930299     0.006146    Cartesian   -0.06
    309 x         -2.734111     -2.730623     0.003488    Cartesian   -0.13
    309 y          0.000000      0.000000     0.000000    Cartesian    0.00
    309 z        -13.670556    -13.660159     0.010397    Cartesian   -0.08
    310 x          6.835278      6.839050     0.003772    Cartesian    0.06
    310 y          1.367056      1.369915     0.002859    Cartesian    0.21
    310 z         12.303501     12.309723     0.006222    Cartesian    0.05
    311 x         -4.101167     -4.103346    -0.002179    Cartesian    0.05
    311 y          9.569389      9.575910     0.006521    Cartesian    0.07
    311 z          9.569389      9.575845     0.006456    Cartesian    0.07
    312 x        -12.303501    -12.309827    -0.006326    Cartesian    0.05
    312 y          1.367056      1.369933     0.002877    Cartesian    0.21
    312 z          6.835278      6.839011     0.003733    Cartesian    0.05
    313 x         -9.569389     -9.575903    -0.006514    Cartesian    0.07
    313 y         -9.569389     -9.575903    -0.006514    Cartesian    0.07
    313 z          4.101167      4.103342     0.002175    Cartesian    0.05
    314 x        -12.303501    -12.309847    -0.006346    Cartesian    0.05
    314 y          6.835278      6.839112     0.003834    Cartesian    0.06
    314 z          1.367056      1.369876     0.002821    Cartesian    0.21
    315 x        -12.303501    -12.309797    -0.006296    Cartesian    0.05
    315 y         -6.835278     -6.839013    -0.003735    Cartesian    0.05
    315 z         -1.367056     -1.369981    -0.002925    Cartesian    0.21
    316 x          9.569389      9.575988     0.006598    Cartesian    0.07
    316 y          9.569389      9.575988     0.006598    Cartesian    0.07
    316 z         -4.101167     -4.103445    -0.002278    Cartesian    0.06
    317 x        -12.303501    -12.309803    -0.006303    Cartesian    0.05
    317 y         -1.367056     -1.369875    -0.002820    Cartesian    0.21
    317 z         -6.835278     -6.839167    -0.003888    Cartesian    0.06
    318 x         -9.569389     -9.575704    -0.006314    Cartesian    0.07
    318 y          4.101167      4.103632     0.002465    Cartesian    0.06
    318 z         -9.569389     -9.576359    -0.006969    Cartesian    0.07
    319 x         -6.835278     -6.841091    -0.005813    Cartesian    0.09
    319 y         -1.367056     -1.369995    -0.002939    Cartesian    0.21
    319 z        -12.303501    -12.316187    -0.012686    Cartesian    0.10
    320 x          6.835278      6.839325     0.004047    Cartesian    0.06
    320 y         -4.101167     -4.104269    -0.003102    Cartesian    0.08
    320 z         12.303501     12.310509     0.007008    Cartesian    0.06
    321 x         -4.101167     -4.104257    -0.003090    Cartesian    0.08
    321 y        -12.303501    -12.310606    -0.007106    Cartesian    0.06
    321 z          6.835278      6.839307     0.004028    Cartesian    0.06
    322 x         -6.835278     -6.839315    -0.004037    Cartesian    0.06
    322 y        -12.303501    -12.310601    -0.007100    Cartesian    0.06
    322 z          4.101167      4.104269     0.003102    Cartesian    0.08
    323 x        -12.303501    -12.310610    -0.007110    Cartesian    0.06
    323 y          6.835278      6.839454     0.004176    Cartesian    0.06
    323 z         -4.101167     -4.104339    -0.003172    Cartesian    0.08
    324 x        -12.303501    -12.310548    -0.007048    Cartesian    0.06
    324 y          4.101167      4.104473     0.003306    Cartesian    0.08
    324 z         -6.835278     -6.839499    -0.004221    Cartesian    0.06
    325 x         -6.835278     -6.841604    -0.006326    Cartesian    0.09
    325 y          4.101167      4.105654     0.004487    Cartesian    0.11
    325 z        -12.303501    -12.319083    -0.015582    Cartesian    0.13
    326 x          5.468223      5.463434    -0.004789    Cartesian   -0.09
    326 y         -2.734111     -2.731909     0.002202    Cartesian   -0.08
    326 z         13.670556     13.655740    -0.014816    Cartesian   -0.11
    327 x          2.734111      2.731904    -0.002207    Cartesian   -0.08
    327 y         13.670556     13.655803    -0.014753    Cartesian   -0.11
    327 z          5.468223      5.463365    -0.004858    Cartesian   -0.09
    328 x          5.468223      5.463425    -0.004797    Cartesian   -0.09
    328 y         13.670556     13.655782    -0.014775    Cartesian   -0.11
    328 z          2.734111      2.731827    -0.002285    Cartesian   -0.08
    329 x          5.468223      5.463432    -0.004790    Cartesian   -0.09
    329 y         13.670556     13.655715    -0.014842    Cartesian   -0.11
    329 z         -2.734111     -2.732032     0.002079    Cartesian   -0.08
    330 x          2.734111      2.731902    -0.002210    Cartesian   -0.08
    330 y         13.670556     13.655640    -0.014916    Cartesian   -0.11
    330 z         -5.468223     -5.463541     0.004681    Cartesian   -0.09
--------------------------------------------------------------------------------


  Time to end of optimisation  =      106.8990 seconds


  Peak dynamic memory used =     795.95 MB 


  Timing analysis for GULP :

--------------------------------------------------------------------------------
  Task / Subroutine                                          Time (Seconds)
--------------------------------------------------------------------------------
  Calculation of real space energy and derivatives                0.0030
  Calculation of real space energy using symmetry                 0.0100
  Calculation for region 1 energy and derivatives (2-b)          39.4320
  Calculation for region 2a energy                               59.5200
  Calculation for region 2b energy                                0.0050
  Calculation of matrix inversion                                 0.4510
--------------------------------------------------------------------------------
  Total CPU time                                                106.8990
--------------------------------------------------------------------------------


  Job Finished at 13:54.55 21st November   2018                               

