********************************************************************************
*                       GENERAL UTILITY LATTICE PROGRAM                        *
*                                 Julian Gale                                  *
*                      Nanochemistry Research Institute                        *
*                           Department of Chemistry                            *
*                    Curtin University, Western Australia                      *
********************************************************************************
* Version = 4.0.6 * Last modified =   1st October 2012                         *
********************************************************************************
*  optimise     - perform optimisation run                                     *
*  conp         - constant pressure calculation                                *
*  property     - calculate properties for final geometry                      *
*  defect       - perform defect calculation after bulk run                    *
*  regi_before  - output region 1 at start of defect calculation               *
*  distance     - calculate distances                                          *
*  compare      - compare initial and final structures                         *
********************************************************************************
* Uranium dioxide simulations                                                  *
********************************************************************************


  Job Started  at 14:19.11 21st November   2018                               

  Number of CPUs =     1

  Host name      = che-thor                                


  Total number of configurations input =   1

********************************************************************************
*  Input for Configuration =   1                                               *
********************************************************************************

  Formula = UO2                                                         

  Number of irreducible atoms/shells =       4


  Total number atoms/shells =       6

  Dimensionality = 3               :  Bulk   


  Symmetry :

  Crystal family                   :  Cubic       
  Crystal class  (Groth - 1921)    :  Cubic Hexakisoctahedral              

  Space group (centrosymmetric)    :  F M 3 M         

  Patterson group                  :  F m -3 m 

  Cartesian lattice vectors (Angstroms) :

        0.000000    2.734100    2.734100
        2.734100    0.000000    2.734100
        2.734100    2.734100    0.000000

  Primitive cell parameters :            Full cell parameters :

  a =   3.8666    alpha =  60.0000       a =   5.4682    alpha =  90.0000
  b =   3.8666    beta  =  60.0000       b =   5.4682    beta  =  90.0000
  c =   3.8666    gamma =  60.0000       c =   5.4682    gamma =  90.0000

  Initial volumes (Angstroms**3):

  Primitive cell =          40.876451    Full cell =         163.505803

  Temperature of configuration =  0.000     K 

  Pressure of configuration =         0.000 GPa 

  Fractional coordinates of asymmetric unit :

--------------------------------------------------------------------------------
   No.  Atomic       x           y          z         Charge      Occupancy
        Label      (Frac)      (Frac)     (Frac)        (e)         (Frac)  
--------------------------------------------------------------------------------
      1 U     c    0.000000    0.000000    0.000000    -2.51000    1.000000    
      2 O     c    0.250000    0.250000    0.250000     2.40000    1.000000    
      3 U     s    0.000000    0.000000    0.000000     6.51000    1.000000    
      4 O     s    0.250000    0.250000    0.250000    -4.40000    1.000000    
--------------------------------------------------------------------------------


  Constraints : 

--------------------------------------------------------------------------------
  Constraint no.      Unconstrained     Constrained    Coefficient    Offset
                         Variable         Variable
--------------------------------------------------------------------------------
           1              Strain 1        Strain 2       1.00000      0.0000
           2              Strain 1        Strain 3       1.00000      0.0000
--------------------------------------------------------------------------------


  Distance calculation :


  Cutoff for distances  =      4.000000 Angstroms

--------------------------------------------------------------------------------
  Asymmetric unit site  Full lattice sites    No.  Distance      No.  Distance
      No.   At.No.            At.No.                (Angs)             (Angs) 
--------------------------------------------------------------------------------
       1   U     core        U     core        12    3.8666
                             U     shell       12    3.8666
                             O     core         8    2.3678
                             O     shell        8    2.3678
--------------------------------------------------------------------------------
       2   O     core        U     core         4    2.3678
                             U     shell        4    2.3678
                             O     core         6    2.7341       12    3.8666
                             O     shell        6    2.7341       12    3.8666
--------------------------------------------------------------------------------
       3   U     shell       U     core        12    3.8666
                             U     shell       12    3.8666
                             O     core         8    2.3678
                             O     shell        8    2.3678
--------------------------------------------------------------------------------
       4   O     shell       U     core         4    2.3678
                             U     shell        4    2.3678
                             O     core         6    2.7341       12    3.8666
                             O     shell        6    2.7341       12    3.8666
--------------------------------------------------------------------------------



********************************************************************************
*  General input information                                                   *
********************************************************************************

  Species output for all configurations : 

--------------------------------------------------------------------------------
  Species    Type    Atomic    Atomic    Charge       Radii (Angs)     Library
                     Number     Mass       (e)     Cova   Ionic  VDW   Symbol
--------------------------------------------------------------------------------
    U        Core       92     238.03  -2.510000   1.580  0.000  2.360          
    U        Shell      92       0.00   6.510000   1.580  0.000  2.360          
    O        Core        8      16.00   2.400000   0.730  0.000  1.360          
    O        Shell       8       0.00  -4.400000   0.730  0.000  1.360          
--------------------------------------------------------------------------------


  Lattice summation method               =    Ewald          (3-D)
                                         =    Parry          (2-D)
                                         =    Saunders et al (1-D)
  Accuracy factor for lattice sums       =   12.000


  Time limit = Infinity

  Maximum range for interatomic potentials =    100000.000000 Angstroms

  General interatomic potentials :

--------------------------------------------------------------------------------
Atom  Types   Potential         A         B         C         D     Cutoffs(Ang)
  1     2                                                            Min    Max 
--------------------------------------------------------------------------------
O    s U    s Buckingham    0.103E+04 0.403      0.00      0.00     0.000 15.000
O    s O    s Buck 4 range  0.113E+05 0.136      134.      2.10     0.000 15.000
U    c U    s Spring (c-s)   111.      0.00      0.00      0.00     0.000  0.600
O    c O    s Spring (c-s)   296.      0.00      0.00      0.00     0.000  0.600
--------------------------------------------------------------------------------

********************************************************************************
*  Output for configuration   1                                                *
********************************************************************************


  Components of energy : 

--------------------------------------------------------------------------------
  Interatomic potentials     =          20.59100851 eV
  Monopole - monopole (real) =         -14.53808335 eV
  Monopole - monopole (recip)=        -108.03524745 eV
  Monopole - monopole (total)=        -122.57333080 eV
--------------------------------------------------------------------------------
  Total lattice energy : 
    Primitive unit cell      =        -101.98232230 eV
    Non-primitive unit cell  =        -407.92928918 eV
--------------------------------------------------------------------------------
  Total lattice energy (in kJmol-1): 
    Primitive unit cell      =           -9839.7352 kJ/(mole unit cells)
    Non-primitive unit cell  =          -39358.9406 kJ/(mole unit cells)
--------------------------------------------------------------------------------


  Number of variables =        1

  Maximum number of calculations  =          1000
  Maximum Hessian update interval =            10
  Maximum step size               =   1.000000000
  Maximum parameter tolerance     =   0.000010000
  Maximum function  tolerance     =   0.000010000
  Maximum gradient  tolerance     =   0.001000000
  Maximum gradient  component     =   0.010000000

  Symmetry constrained optimisation

  Symmetry used for second derivatives

  Cell parameters to be optimised using strains

  Newton-Raphson optimiser to be used

  BFGS hessian update to be used

  Start of bulk optimisation :

  Cycle:      0 Energy:      -101.982322  Gnorm:      0.001971  CPU:    0.012
  ** Hessian calculated **


  **** Optimisation achieved ****


  Final energy =    -101.98232230 eV
  Final Gnorm  =       0.00000037

  Components of energy : 

--------------------------------------------------------------------------------
  Interatomic potentials     =          20.59050323 eV
  Monopole - monopole (real) =         -14.53802342 eV
  Monopole - monopole (recip)=        -108.03480210 eV
  Monopole - monopole (total)=        -122.57282553 eV
--------------------------------------------------------------------------------
  Total lattice energy : 
    Primitive unit cell      =        -101.98232230 eV
    Non-primitive unit cell  =        -407.92928920 eV
--------------------------------------------------------------------------------
  Total lattice energy (in kJmol-1): 
    Primitive unit cell      =           -9839.7352 kJ/(mole unit cells)
    Non-primitive unit cell  =          -39358.9406 kJ/(mole unit cells)
--------------------------------------------------------------------------------

  Final asymmetric unit coordinates :

--------------------------------------------------------------------------------
   No.  Atomic        x           y           z         Radius
        Label       (Frac)      (Frac)      (Frac)       (Angs) 
--------------------------------------------------------------------------------
     1  U     c     0.000000    0.000000    0.000000    0.000000
     2  O     c     0.250000    0.250000    0.250000    0.000000
     3  U     s     0.000000    0.000000    0.000000    0.000000
     4  O     s     0.250000    0.250000    0.250000    0.000000
--------------------------------------------------------------------------------

  Final Cartesian lattice vectors (Angstroms) :

        0.000000    2.734111    2.734111
        2.734111    0.000000    2.734111
        2.734111    2.734111    0.000000


  Final cell parameters and derivatives :

--------------------------------------------------------------------------------
       a            3.866617 Angstrom     dE/de1(xx)     0.000000 eV/strain
       b            3.866617 Angstrom     dE/de2(yy)     0.000000 eV/strain
       c            3.866617 Angstrom     dE/de3(zz)     0.000000 eV/strain
       alpha       60.000000 Degrees      dE/de4(yz)     0.000000 eV/strain
       beta        60.000000 Degrees      dE/de5(xz)     0.000000 eV/strain
       gamma       60.000000 Degrees      dE/de6(xy)     0.000000 eV/strain
--------------------------------------------------------------------------------

  Primitive cell volume =            40.876956 Angs**3

  Density of cell =     10.969567 g/cm**3

  Non-primitive lattice parameters :

  a    =     5.468223  b   =     5.468223  c    =     5.468223
  alpha=    90.000000  beta=    90.000000  gamma=    90.000000

  Non-primitive cell volume =           163.507825 Angs**3


  Final internal derivatives :

--------------------------------------------------------------------------------
   No.  Atomic          a             b             c           Radius
        Label          (eV)          (eV)          (eV)        (eV/Angs)
--------------------------------------------------------------------------------
      1 U     c       0.000000      0.000000      0.000000      0.000000
      2 O     c       0.000000      0.000000      0.000000      0.000000
      3 U     s       0.000000      0.000000      0.000000      0.000000
      4 O     s       0.000000      0.000000      0.000000      0.000000
--------------------------------------------------------------------------------
  Maximum abs         0.000000      0.000000      0.000000      0.000000
--------------------------------------------------------------------------------

  Comparison of initial and final structures : 

--------------------------------------------------------------------------------
  Parameter   Initial value   Final value   Difference    Units      Percent
--------------------------------------------------------------------------------
    Volume       163.505803    163.507825     0.002022    Angs**3      0.00
    a              5.468200      5.468223     0.000023    Angstroms    0.00
    b              5.468200      5.468223     0.000023    Angstroms    0.00
    c              5.468200      5.468223     0.000023    Angstroms    0.00
    alpha         90.000000     90.000000     0.000000    Degrees      0.00
    beta          90.000000     90.000000     0.000000    Degrees      0.00
    gamma         90.000000     90.000000     0.000000    Degrees      0.00
      1 x          0.000000      0.000000     0.000000    Fractional   0.00
      1 y          0.000000      0.000000     0.000000    Fractional   0.00
      1 z          0.000000      0.000000     0.000000    Fractional   0.00
      2 x          0.250000      0.250000     0.000000    Fractional   0.00
      2 y          0.250000      0.250000     0.000000    Fractional   0.00
      2 z          0.250000      0.250000     0.000000    Fractional   0.00
      3 x          0.000000      0.000000     0.000000    Fractional   0.00
      3 y          0.000000      0.000000     0.000000    Fractional   0.00
      3 z          0.000000      0.000000     0.000000    Fractional   0.00
      4 x          0.250000      0.250000     0.000000    Fractional   0.00
      4 y          0.250000      0.250000     0.000000    Fractional   0.00
      4 z          0.250000      0.250000     0.000000    Fractional   0.00
--------------------------------------------------------------------------------


  Distance calculation :


  Cutoff for distances  =      4.000000 Angstroms

--------------------------------------------------------------------------------
  Asymmetric unit site  Full lattice sites    No.  Distance      No.  Distance
      No.   At.No.            At.No.                (Angs)             (Angs) 
--------------------------------------------------------------------------------
       1   U     core        U     core        12    3.8666
                             U     shell       12    3.8666
                             O     core         8    2.3678
                             O     shell        8    2.3678
--------------------------------------------------------------------------------
       2   O     core        U     core         4    2.3678
                             U     shell        4    2.3678
                             O     core         6    2.7341       12    3.8666
                             O     shell        6    2.7341       12    3.8666
--------------------------------------------------------------------------------
       3   U     shell       U     core        12    3.8666
                             U     shell       12    3.8666
                             O     core         8    2.3678
                             O     shell        8    2.3678
--------------------------------------------------------------------------------
       4   O     shell       U     core         4    2.3678
                             U     shell        4    2.3678
                             O     core         6    2.7341       12    3.8666
                             O     shell        6    2.7341       12    3.8666
--------------------------------------------------------------------------------



  Born effective charge tensors : 

-------------------------------------------------------------------------------
  Atom             x           y             z
-------------------------------------------------------------------------------
   1 U     x       5.2290      0.0000     -0.0000
           y       0.0000      5.2290      0.0000
           z      -0.0000      0.0000      5.2290
-------------------------------------------------------------------------------
   2 O     x      -2.6145      0.0000      0.0000
           y       0.0000     -2.6145     -0.0000
           z       0.0000     -0.0000     -2.6145
-------------------------------------------------------------------------------




  Elastic Constant Matrix: (Units=GPa)

-------------------------------------------------------------------------------
  Indices      1         2         3         4         5         6    
-------------------------------------------------------------------------------
       1    391.4302  116.7250  116.7250    0.0000    0.0000    0.0000
       2    116.7250  391.4302  116.7250    0.0000    0.0000    0.0000
       3    116.7250  116.7250  391.4302    0.0000    0.0000    0.0000
       4      0.0000    0.0000    0.0000   58.0905    0.0000    0.0000
       5      0.0000    0.0000    0.0000    0.0000   58.0905    0.0000
       6      0.0000    0.0000    0.0000    0.0000    0.0000   58.0905
-------------------------------------------------------------------------------


  Elastic Compliance Matrix: (Units=1/GPa)

-------------------------------------------------------------------------------
  Indices      1         2         3         4         5         6    
-------------------------------------------------------------------------------
       1    0.002960 -0.000680 -0.000680 -0.000000 -0.000000 -0.000000
       2   -0.000680  0.002960 -0.000680 -0.000000 -0.000000 -0.000000
       3   -0.000680 -0.000680  0.002960 -0.000000 -0.000000 -0.000000
       4   -0.000000 -0.000000 -0.000000  0.017215 -0.000000 -0.000000
       5   -0.000000 -0.000000 -0.000000 -0.000000  0.017215 -0.000000
       6   -0.000000 -0.000000 -0.000000 -0.000000 -0.000000  0.017215
-------------------------------------------------------------------------------

  Mechanical properties :

-------------------------------------------------------------------------------
  Convention :                    Reuss         Voigt         Hill
-------------------------------------------------------------------------------
  Bulk  Modulus (GPa)     =     208.29341     208.29341     208.29341
  Shear Modulus (GPa)     =      75.52342      89.79533      82.65937
-------------------------------------------------------------------------------
  Velocity S-wave (km/s)  =       2.62389       2.86109       2.74506
  Velocity P-wave (km/s)  =       5.30736       5.46834       5.38845
-------------------------------------------------------------------------------
  Compressibility (1/GPa) =    0.00480092
-------------------------------------------------------------------------------
  Stress axis :                     x             y             z
-------------------------------------------------------------------------------
  Youngs Moduli (GPa)     =     337.80590     337.80590     337.80590
-------------------------------------------------------------------------------
  Poissons Ratio (x)      =                     0.22970       0.22970
  Poissons Ratio (y)      =       0.22970                     0.22970
  Poissons Ratio (z)      =       0.22970       0.22970
-------------------------------------------------------------------------------


  Piezoelectric Strain Matrix: (Units=C/m**2)

-------------------------------------------------------------------------------
  Indices      1         2         3         4         5         6    
-------------------------------------------------------------------------------
       x    -0.00000  -0.00000  -0.00000  -0.00000   0.00000  -0.00000
       y    -0.00000  -0.00000  -0.00000   0.00000  -0.00000  -0.00000
       z     0.00000   0.00000  -0.00000  -0.00000  -0.00000  -0.00000
-------------------------------------------------------------------------------


  Piezoelectric Stress Matrix: (Units=10**-11 C/N)

-------------------------------------------------------------------------------
  Indices      1         2         3         4         5         6    
-------------------------------------------------------------------------------
       x    -0.00000  -0.00000  -0.00000  -0.00000   0.00000  -0.00000
       y    -0.00000  -0.00000  -0.00000   0.00000  -0.00000  -0.00000
       z     0.00000   0.00000  -0.00000  -0.00000  -0.00000  -0.00000
-------------------------------------------------------------------------------


  Static dielectric constant tensor : 

-------------------------------------------------------------------------------
              x         y         z
-------------------------------------------------------------------------------
       x    24.34269   0.00000  -0.00000
       y     0.00000  24.34269  -0.00000
       z    -0.00000  -0.00000  24.34269
--------------------------------------------------------------------------------

  High frequency dielectric constant tensor : 

-------------------------------------------------------------------------------
              x         y         z
-------------------------------------------------------------------------------
       x     4.94810   0.00000   0.00000
       y     0.00000   4.94810   0.00000
       z     0.00000   0.00000   4.94810
-------------------------------------------------------------------------------

  Static refractive indices : 

-------------------------------------------------------------------------------
    1 =    4.93383      2 =    4.93383      3 =    4.93383
-------------------------------------------------------------------------------

  High frequency refractive indices : 

-------------------------------------------------------------------------------
    1 =    2.22443      2 =    2.22443      3 =    2.22443
-------------------------------------------------------------------------------


  Time to end of optimisation =       0.0240 seconds

********************************************************************************
*  Defect calculation for configuration   1 :                                  *
********************************************************************************

  Total number of defects =      1

  Total charge on defect  =  -4.00

  Defect centre is at   0.0000   0.0000   0.0200  Frac

  Region 1 radius =  14.0000      Number of ions =   1704

  Number of symmetry inequivalent region 1 ions  =    282

  Region 2 radius =  28.0000      Number of ions =  11860

  Number of symmetry inequivalent region 2a ions =   1680

  Region 2a mode = 4 : screened electrostatics due to region 1 
                       neglect correction to region 1 forces from 2a
                       region 2a displacements based on defects only

  Region 2a ions will only interact with defects in region 1

  Vacancies:

--------------------------------------------------------------------------------
    Specification type     Symbol/Number         x          y          z
--------------------------------------------------------------------------------
    Fractional                               0.000000   0.000000   0.010000
--------------------------------------------------------------------------------


  Region 1 (Absolute coordinates) :

--------------------------------------------------------------------------------
   No.   Atomic       x            y             z         Charge   Occupancy
         Label      (Angs)       (Angs)        (Angs)        (e)    
--------------------------------------------------------------------------------
     1  O     c     -1.3671      -1.3671       1.3671      2.40000    1.00000
     2  O     c      1.3671       1.3671       1.3671      2.40000    1.00000
     3  O     c      1.3671      -1.3671       1.3671      2.40000    1.00000
     4  O     c     -1.3671       1.3671       1.3671      2.40000    1.00000
     5  O     c     -1.3671      -1.3671      -1.3671      2.40000    1.00000
     6  O     c      1.3671       1.3671      -1.3671      2.40000    1.00000
     7  O     c     -1.3671       1.3671      -1.3671      2.40000    1.00000
     8  O     c      1.3671      -1.3671      -1.3671      2.40000    1.00000
     9  U     c      0.0000       2.7341       2.7341     -2.51000    1.00000
    10  U     c     -2.7341       0.0000       2.7341     -2.51000    1.00000
    11  U     c      2.7341       0.0000       2.7341     -2.51000    1.00000
    12  U     c      0.0000      -2.7341       2.7341     -2.51000    1.00000
    13  U     c      2.7341       2.7341       0.0000     -2.51000    1.00000
    14  U     c     -2.7341      -2.7341       0.0000     -2.51000    1.00000
    15  U     c     -2.7341       2.7341      -0.0000     -2.51000    1.00000
    16  U     c      2.7341      -2.7341       0.0000     -2.51000    1.00000
    17  U     c     -2.7341       0.0000      -2.7341     -2.51000    1.00000
    18  U     c      0.0000       2.7341      -2.7341     -2.51000    1.00000
    19  U     c      0.0000      -2.7341      -2.7341     -2.51000    1.00000
    20  U     c      2.7341       0.0000      -2.7341     -2.51000    1.00000
    21  O     c     -1.3671      -1.3671       4.1012      2.40000    1.00000
    22  O     c      1.3671      -1.3671       4.1012      2.40000    1.00000
    23  O     c     -1.3671       1.3671       4.1012      2.40000    1.00000
    24  O     c      1.3671       1.3671       4.1012      2.40000    1.00000
    25  O     c     -1.3671      -4.1012       1.3671      2.40000    1.00000
    26  O     c     -4.1012      -1.3671       1.3671      2.40000    1.00000
    27  O     c     -4.1012       1.3671       1.3671      2.40000    1.00000
    28  O     c     -1.3671       4.1012       1.3671      2.40000    1.00000
    29  O     c      1.3671      -4.1012       1.3671      2.40000    1.00000
    30  O     c      4.1012      -1.3671       1.3671      2.40000    1.00000
    31  O     c      4.1012       1.3671       1.3671      2.40000    1.00000
    32  O     c      1.3671       4.1012       1.3671      2.40000    1.00000
    33  O     c     -4.1012       1.3671      -1.3671      2.40000    1.00000
    34  O     c      1.3671      -4.1012      -1.3671      2.40000    1.00000
    35  O     c     -4.1012      -1.3671      -1.3671      2.40000    1.00000
    36  O     c      1.3671       4.1012      -1.3671      2.40000    1.00000
    37  O     c     -1.3671      -4.1012      -1.3671      2.40000    1.00000
    38  O     c      4.1012       1.3671      -1.3671      2.40000    1.00000
    39  O     c     -1.3671       4.1012      -1.3671      2.40000    1.00000
    40  O     c      4.1012      -1.3671      -1.3671      2.40000    1.00000
    41  O     c     -1.3671      -1.3671      -4.1012      2.40000    1.00000
    42  O     c      1.3671       1.3671      -4.1012      2.40000    1.00000
    43  O     c     -1.3671       1.3671      -4.1012      2.40000    1.00000
    44  O     c      1.3671      -1.3671      -4.1012      2.40000    1.00000
    45  U     c      0.0000       0.0000       5.4682     -2.51000    1.00000
    46  U     c      5.4682       0.0000       0.0000     -2.51000    1.00000
    47  U     c      0.0000      -5.4682       0.0000     -2.51000    1.00000
    48  U     c      0.0000       5.4682      -0.0000     -2.51000    1.00000
    49  U     c     -5.4682       0.0000      -0.0000     -2.51000    1.00000
    50  U     c      0.0000       0.0000      -5.4682     -2.51000    1.00000
    51  O     c      1.3671      -4.1012       4.1012      2.40000    1.00000
    52  O     c     -4.1012       1.3671       4.1012      2.40000    1.00000
    53  O     c      4.1012       1.3671       4.1012      2.40000    1.00000
    54  O     c     -1.3671      -4.1012       4.1012      2.40000    1.00000
    55  O     c      1.3671       4.1012       4.1012      2.40000    1.00000
    56  O     c     -4.1012      -1.3671       4.1012      2.40000    1.00000
    57  O     c      4.1012      -1.3671       4.1012      2.40000    1.00000
    58  O     c     -1.3671       4.1012       4.1012      2.40000    1.00000
    59  O     c     -4.1012       4.1012       1.3671      2.40000    1.00000
    60  O     c      4.1012      -4.1012       1.3671      2.40000    1.00000
    61  O     c      4.1012       4.1012       1.3671      2.40000    1.00000
    62  O     c     -4.1012      -4.1012       1.3671      2.40000    1.00000
    63  O     c     -4.1012      -4.1012      -1.3671      2.40000    1.00000
    64  O     c      4.1012      -4.1012      -1.3671      2.40000    1.00000
    65  O     c      4.1012       4.1012      -1.3671      2.40000    1.00000
    66  O     c     -4.1012       4.1012      -1.3671      2.40000    1.00000
    67  O     c     -4.1012      -1.3671      -4.1012      2.40000    1.00000
    68  O     c     -1.3671      -4.1012      -4.1012      2.40000    1.00000
    69  O     c     -4.1012       1.3671      -4.1012      2.40000    1.00000
    70  O     c     -1.3671       4.1012      -4.1012      2.40000    1.00000
    71  O     c      1.3671      -4.1012      -4.1012      2.40000    1.00000
    72  O     c      4.1012      -1.3671      -4.1012      2.40000    1.00000
    73  O     c      1.3671       4.1012      -4.1012      2.40000    1.00000
    74  O     c      4.1012       1.3671      -4.1012      2.40000    1.00000
    75  U     c      2.7341      -2.7341       5.4682     -2.51000    1.00000
    76  U     c      2.7341       2.7341       5.4682     -2.51000    1.00000
    77  U     c     -2.7341      -2.7341       5.4682     -2.51000    1.00000
    78  U     c     -2.7341       2.7341       5.4682     -2.51000    1.00000
    79  U     c      2.7341       5.4682       2.7341     -2.51000    1.00000
    80  U     c     -5.4682      -2.7341       2.7341     -2.51000    1.00000
    81  U     c     -2.7341       5.4682       2.7341     -2.51000    1.00000
    82  U     c     -5.4682       2.7341       2.7341     -2.51000    1.00000
    83  U     c      5.4682       2.7341       2.7341     -2.51000    1.00000
    84  U     c     -2.7341      -5.4682       2.7341     -2.51000    1.00000
    85  U     c      5.4682      -2.7341       2.7341     -2.51000    1.00000
    86  U     c      2.7341      -5.4682       2.7341     -2.51000    1.00000
    87  U     c      2.7341       5.4682      -2.7341     -2.51000    1.00000
    88  U     c     -5.4682      -2.7341      -2.7341     -2.51000    1.00000
    89  U     c      5.4682       2.7341      -2.7341     -2.51000    1.00000
    90  U     c     -2.7341      -5.4682      -2.7341     -2.51000    1.00000
    91  U     c      2.7341      -5.4682      -2.7341     -2.51000    1.00000
    92  U     c      5.4682      -2.7341      -2.7341     -2.51000    1.00000
    93  U     c     -5.4682       2.7341      -2.7341     -2.51000    1.00000
    94  U     c     -2.7341       5.4682      -2.7341     -2.51000    1.00000
    95  U     c     -2.7341       2.7341      -5.4682     -2.51000    1.00000
    96  U     c     -2.7341      -2.7341      -5.4682     -2.51000    1.00000
    97  U     c      2.7341       2.7341      -5.4682     -2.51000    1.00000
    98  U     c      2.7341      -2.7341      -5.4682     -2.51000    1.00000
    99  O     c      1.3671       1.3671       6.8353      2.40000    1.00000
   100  O     c     -1.3671      -1.3671       6.8353      2.40000    1.00000
   101  O     c      1.3671      -1.3671       6.8353      2.40000    1.00000
   102  O     c     -1.3671       1.3671       6.8353      2.40000    1.00000
   103  O     c     -4.1012      -4.1012       4.1012      2.40000    1.00000
   104  O     c     -4.1012       4.1012       4.1012      2.40000    1.00000
   105  O     c      4.1012      -4.1012       4.1012      2.40000    1.00000
   106  O     c      4.1012       4.1012       4.1012      2.40000    1.00000
   107  O     c     -6.8353       1.3671       1.3671      2.40000    1.00000
   108  O     c      1.3671      -6.8353       1.3671      2.40000    1.00000
   109  O     c      1.3671       6.8353       1.3671      2.40000    1.00000
   110  O     c     -6.8353      -1.3671       1.3671      2.40000    1.00000
   111  O     c      6.8353       1.3671       1.3671      2.40000    1.00000
   112  O     c     -1.3671      -6.8353       1.3671      2.40000    1.00000
   113  O     c     -1.3671       6.8353       1.3671      2.40000    1.00000
   114  O     c      6.8353      -1.3671       1.3671      2.40000    1.00000
   115  O     c     -6.8353      -1.3671      -1.3671      2.40000    1.00000
   116  O     c     -1.3671      -6.8353      -1.3671      2.40000    1.00000
   117  O     c     -6.8353       1.3671      -1.3671      2.40000    1.00000
   118  O     c      1.3671      -6.8353      -1.3671      2.40000    1.00000
   119  O     c      6.8353      -1.3671      -1.3671      2.40000    1.00000
   120  O     c      1.3671       6.8353      -1.3671      2.40000    1.00000
   121  O     c      6.8353       1.3671      -1.3671      2.40000    1.00000
   122  O     c     -1.3671       6.8353      -1.3671      2.40000    1.00000
   123  O     c      4.1012       4.1012      -4.1012      2.40000    1.00000
   124  O     c     -4.1012       4.1012      -4.1012      2.40000    1.00000
   125  O     c     -4.1012      -4.1012      -4.1012      2.40000    1.00000
   126  O     c      4.1012      -4.1012      -4.1012      2.40000    1.00000
   127  O     c     -1.3671      -1.3671      -6.8353      2.40000    1.00000
   128  O     c     -1.3671       1.3671      -6.8353      2.40000    1.00000
   129  O     c      1.3671      -1.3671      -6.8353      2.40000    1.00000
   130  O     c      1.3671       1.3671      -6.8353      2.40000    1.00000
   131  U     c      5.4682       0.0000       5.4682     -2.51000    1.00000
   132  U     c      0.0000      -5.4682       5.4682     -2.51000    1.00000
   133  U     c      0.0000       5.4682       5.4682     -2.51000    1.00000
   134  U     c     -5.4682       0.0000       5.4682     -2.51000    1.00000
   135  U     c      5.4682       5.4682       0.0000     -2.51000    1.00000
   136  U     c     -5.4682      -5.4682       0.0000     -2.51000    1.00000
   137  U     c     -5.4682       5.4682      -0.0000     -2.51000    1.00000
   138  U     c      5.4682      -5.4682       0.0000     -2.51000    1.00000
   139  U     c     -5.4682       0.0000      -5.4682     -2.51000    1.00000
   140  U     c      0.0000       5.4682      -5.4682     -2.51000    1.00000
   141  U     c      0.0000      -5.4682      -5.4682     -2.51000    1.00000
   142  U     c      5.4682       0.0000      -5.4682     -2.51000    1.00000
   143  O     c      4.1012      -1.3671       6.8353      2.40000    1.00000
   144  O     c      1.3671      -4.1012       6.8353      2.40000    1.00000
   145  O     c     -1.3671       4.1012       6.8353      2.40000    1.00000
   146  O     c     -4.1012       1.3671       6.8353      2.40000    1.00000
   147  O     c     -1.3671      -4.1012       6.8353      2.40000    1.00000
   148  O     c     -4.1012      -1.3671       6.8353      2.40000    1.00000
   149  O     c      4.1012       1.3671       6.8353      2.40000    1.00000
   150  O     c      1.3671       4.1012       6.8353      2.40000    1.00000
   151  O     c     -1.3671      -6.8353       4.1012      2.40000    1.00000
   152  O     c     -6.8353      -1.3671       4.1012      2.40000    1.00000
   153  O     c     -1.3671       6.8353       4.1012      2.40000    1.00000
   154  O     c     -6.8353       1.3671       4.1012      2.40000    1.00000
   155  O     c      6.8353      -1.3671       4.1012      2.40000    1.00000
   156  O     c      1.3671      -6.8353       4.1012      2.40000    1.00000
   157  O     c      6.8353       1.3671       4.1012      2.40000    1.00000
   158  O     c      1.3671       6.8353       4.1012      2.40000    1.00000
   159  O     c     -4.1012      -6.8353       1.3671      2.40000    1.00000
   160  O     c     -6.8353      -4.1012       1.3671      2.40000    1.00000
   161  O     c     -6.8353       4.1012       1.3671      2.40000    1.00000
   162  O     c     -4.1012       6.8353       1.3671      2.40000    1.00000
   163  O     c      4.1012      -6.8353       1.3671      2.40000    1.00000
   164  O     c      6.8353      -4.1012       1.3671      2.40000    1.00000
   165  O     c      6.8353       4.1012       1.3671      2.40000    1.00000
   166  O     c      4.1012       6.8353       1.3671      2.40000    1.00000
   167  O     c     -6.8353       4.1012      -1.3671      2.40000    1.00000
   168  O     c      4.1012      -6.8353      -1.3671      2.40000    1.00000
   169  O     c      4.1012       6.8353      -1.3671      2.40000    1.00000
   170  O     c      6.8353       4.1012      -1.3671      2.40000    1.00000
   171  O     c     -4.1012       6.8353      -1.3671      2.40000    1.00000
   172  O     c      6.8353      -4.1012      -1.3671      2.40000    1.00000
   173  O     c     -6.8353      -4.1012      -1.3671      2.40000    1.00000
   174  O     c     -4.1012      -6.8353      -1.3671      2.40000    1.00000
   175  O     c     -6.8353       1.3671      -4.1012      2.40000    1.00000
   176  O     c      1.3671      -6.8353      -4.1012      2.40000    1.00000
   177  O     c     -6.8353      -1.3671      -4.1012      2.40000    1.00000
   178  O     c      1.3671       6.8353      -4.1012      2.40000    1.00000
   179  O     c     -1.3671      -6.8353      -4.1012      2.40000    1.00000
   180  O     c      6.8353       1.3671      -4.1012      2.40000    1.00000
   181  O     c     -1.3671       6.8353      -4.1012      2.40000    1.00000
   182  O     c      6.8353      -1.3671      -4.1012      2.40000    1.00000
   183  O     c      1.3671       4.1012      -6.8353      2.40000    1.00000
   184  O     c      4.1012       1.3671      -6.8353      2.40000    1.00000
   185  O     c     -4.1012       1.3671      -6.8353      2.40000    1.00000
   186  O     c     -1.3671       4.1012      -6.8353      2.40000    1.00000
   187  O     c      1.3671      -4.1012      -6.8353      2.40000    1.00000
   188  O     c      4.1012      -1.3671      -6.8353      2.40000    1.00000
   189  O     c     -4.1012      -1.3671      -6.8353      2.40000    1.00000
   190  O     c     -1.3671      -4.1012      -6.8353      2.40000    1.00000
   191  U     c      2.7341       0.0000       8.2023     -2.51000    1.00000
   192  U     c      0.0000      -2.7341       8.2023     -2.51000    1.00000
   193  U     c      0.0000       2.7341       8.2023     -2.51000    1.00000
   194  U     c     -2.7341       0.0000       8.2023     -2.51000    1.00000
   195  U     c      0.0000       8.2023       2.7341     -2.51000    1.00000
   196  U     c     -8.2023       0.0000       2.7341     -2.51000    1.00000
   197  U     c      8.2023       0.0000       2.7341     -2.51000    1.00000
   198  U     c      0.0000      -8.2023       2.7341     -2.51000    1.00000
   199  U     c      2.7341       8.2023      -0.0000     -2.51000    1.00000
   200  U     c     -8.2023      -2.7341      -0.0000     -2.51000    1.00000
   201  U     c     -2.7341       8.2023      -0.0000     -2.51000    1.00000
   202  U     c     -8.2023       2.7341      -0.0000     -2.51000    1.00000
   203  U     c      8.2023       2.7341       0.0000     -2.51000    1.00000
   204  U     c     -2.7341      -8.2023       0.0000     -2.51000    1.00000
   205  U     c      8.2023      -2.7341       0.0000     -2.51000    1.00000
   206  U     c      2.7341      -8.2023       0.0000     -2.51000    1.00000
   207  U     c      0.0000       8.2023      -2.7341     -2.51000    1.00000
   208  U     c     -8.2023       0.0000      -2.7341     -2.51000    1.00000
   209  U     c      8.2023       0.0000      -2.7341     -2.51000    1.00000
   210  U     c      0.0000      -8.2023      -2.7341     -2.51000    1.00000
   211  U     c     -2.7341       0.0000      -8.2023     -2.51000    1.00000
   212  U     c      0.0000       2.7341      -8.2023     -2.51000    1.00000
   213  U     c      0.0000      -2.7341      -8.2023     -2.51000    1.00000
   214  U     c      2.7341       0.0000      -8.2023     -2.51000    1.00000
   215  O     c      4.1012       4.1012       6.8353      2.40000    1.00000
   216  O     c     -4.1012      -4.1012       6.8353      2.40000    1.00000
   217  O     c      4.1012      -4.1012       6.8353      2.40000    1.00000
   218  O     c     -4.1012       4.1012       6.8353      2.40000    1.00000
   219  O     c     -6.8353       4.1012       4.1012      2.40000    1.00000
   220  O     c      4.1012      -6.8353       4.1012      2.40000    1.00000
   221  O     c     -4.1012       6.8353       4.1012      2.40000    1.00000
   222  O     c      6.8353      -4.1012       4.1012      2.40000    1.00000
   223  O     c      6.8353       4.1012       4.1012      2.40000    1.00000
   224  O     c     -4.1012      -6.8353       4.1012      2.40000    1.00000
   225  O     c      4.1012       6.8353       4.1012      2.40000    1.00000
   226  O     c     -6.8353      -4.1012       4.1012      2.40000    1.00000
   227  O     c     -6.8353      -4.1012      -4.1012      2.40000    1.00000
   228  O     c     -4.1012      -6.8353      -4.1012      2.40000    1.00000
   229  O     c     -6.8353       4.1012      -4.1012      2.40000    1.00000
   230  O     c      4.1012      -6.8353      -4.1012      2.40000    1.00000
   231  O     c      4.1012       6.8353      -4.1012      2.40000    1.00000
   232  O     c      6.8353       4.1012      -4.1012      2.40000    1.00000
   233  O     c     -4.1012       6.8353      -4.1012      2.40000    1.00000
   234  O     c      6.8353      -4.1012      -4.1012      2.40000    1.00000
   235  O     c     -4.1012      -4.1012      -6.8353      2.40000    1.00000
   236  O     c     -4.1012       4.1012      -6.8353      2.40000    1.00000
   237  O     c      4.1012      -4.1012      -6.8353      2.40000    1.00000
   238  O     c      4.1012       4.1012      -6.8353      2.40000    1.00000
   239  U     c      5.4682       5.4682       5.4682     -2.51000    1.00000
   240  U     c     -5.4682      -5.4682       5.4682     -2.51000    1.00000
   241  U     c     -5.4682       5.4682       5.4682     -2.51000    1.00000
   242  U     c      5.4682      -5.4682       5.4682     -2.51000    1.00000
   243  U     c     -5.4682       5.4682      -5.4682     -2.51000    1.00000
   244  U     c      5.4682       5.4682      -5.4682     -2.51000    1.00000
   245  U     c     -5.4682      -5.4682      -5.4682     -2.51000    1.00000
   246  U     c      5.4682      -5.4682      -5.4682     -2.51000    1.00000
   247  O     c      1.3671      -1.3671       9.5694      2.40000    1.00000
   248  O     c     -1.3671       1.3671       9.5694      2.40000    1.00000
   249  O     c      1.3671       1.3671       9.5694      2.40000    1.00000
   250  O     c     -1.3671      -1.3671       9.5694      2.40000    1.00000
   251  O     c      6.8353       1.3671       6.8353      2.40000    1.00000
   252  O     c     -1.3671      -6.8353       6.8353      2.40000    1.00000
   253  O     c      1.3671       6.8353       6.8353      2.40000    1.00000
   254  O     c     -6.8353      -1.3671       6.8353      2.40000    1.00000
   255  O     c      1.3671      -6.8353       6.8353      2.40000    1.00000
   256  O     c     -6.8353       1.3671       6.8353      2.40000    1.00000
   257  O     c      6.8353      -1.3671       6.8353      2.40000    1.00000
   258  O     c     -1.3671       6.8353       6.8353      2.40000    1.00000
   259  O     c     -9.5694      -1.3671       1.3671      2.40000    1.00000
   260  O     c     -1.3671      -9.5694       1.3671      2.40000    1.00000
   261  O     c     -1.3671       9.5694       1.3671      2.40000    1.00000
   262  O     c     -9.5694       1.3671       1.3671      2.40000    1.00000
   263  O     c      9.5694      -1.3671       1.3671      2.40000    1.00000
   264  O     c      1.3671      -9.5694       1.3671      2.40000    1.00000
   265  O     c      1.3671       9.5694       1.3671      2.40000    1.00000
   266  O     c      9.5694       1.3671       1.3671      2.40000    1.00000
   267  O     c     -6.8353       6.8353       1.3671      2.40000    1.00000
   268  O     c      6.8353      -6.8353       1.3671      2.40000    1.00000
   269  O     c      6.8353       6.8353       1.3671      2.40000    1.00000
   270  O     c     -6.8353      -6.8353       1.3671      2.40000    1.00000
   271  O     c     -6.8353      -6.8353      -1.3671      2.40000    1.00000
   272  O     c     -6.8353       6.8353      -1.3671      2.40000    1.00000
   273  O     c      6.8353      -6.8353      -1.3671      2.40000    1.00000
   274  O     c      6.8353       6.8353      -1.3671      2.40000    1.00000
   275  O     c     -9.5694       1.3671      -1.3671      2.40000    1.00000
   276  O     c      1.3671      -9.5694      -1.3671      2.40000    1.00000
   277  O     c      1.3671       9.5694      -1.3671      2.40000    1.00000
   278  O     c      9.5694       1.3671      -1.3671      2.40000    1.00000
   279  O     c     -1.3671       9.5694      -1.3671      2.40000    1.00000
   280  O     c      9.5694      -1.3671      -1.3671      2.40000    1.00000
   281  O     c     -9.5694      -1.3671      -1.3671      2.40000    1.00000
   282  O     c     -1.3671      -9.5694      -1.3671      2.40000    1.00000
   283  O     c     -6.8353      -1.3671      -6.8353      2.40000    1.00000
   284  O     c     -1.3671      -6.8353      -6.8353      2.40000    1.00000
   285  O     c     -6.8353       1.3671      -6.8353      2.40000    1.00000
   286  O     c      1.3671      -6.8353      -6.8353      2.40000    1.00000
   287  O     c      1.3671       6.8353      -6.8353      2.40000    1.00000
   288  O     c      6.8353       1.3671      -6.8353      2.40000    1.00000
   289  O     c     -1.3671       6.8353      -6.8353      2.40000    1.00000
   290  O     c      6.8353      -1.3671      -6.8353      2.40000    1.00000
   291  O     c      1.3671       1.3671      -9.5694      2.40000    1.00000
   292  O     c     -1.3671       1.3671      -9.5694      2.40000    1.00000
   293  O     c      1.3671      -1.3671      -9.5694      2.40000    1.00000
   294  O     c     -1.3671      -1.3671      -9.5694      2.40000    1.00000
   295  U     c      5.4682       2.7341       8.2023     -2.51000    1.00000
   296  U     c     -2.7341      -5.4682       8.2023     -2.51000    1.00000
   297  U     c      2.7341       5.4682       8.2023     -2.51000    1.00000
   298  U     c     -5.4682      -2.7341       8.2023     -2.51000    1.00000
   299  U     c      5.4682      -2.7341       8.2023     -2.51000    1.00000
   300  U     c      2.7341      -5.4682       8.2023     -2.51000    1.00000
   301  U     c     -2.7341       5.4682       8.2023     -2.51000    1.00000
   302  U     c     -5.4682       2.7341       8.2023     -2.51000    1.00000
   303  U     c      8.2023       2.7341       5.4682     -2.51000    1.00000
   304  U     c     -2.7341      -8.2023       5.4682     -2.51000    1.00000
   305  U     c      2.7341       8.2023       5.4682     -2.51000    1.00000
   306  U     c     -8.2023      -2.7341       5.4682     -2.51000    1.00000
   307  U     c     -2.7341       8.2023       5.4682     -2.51000    1.00000
   308  U     c      8.2023      -2.7341       5.4682     -2.51000    1.00000
   309  U     c     -8.2023       2.7341       5.4682     -2.51000    1.00000
   310  U     c      2.7341      -8.2023       5.4682     -2.51000    1.00000
   311  U     c      8.2023       5.4682       2.7341     -2.51000    1.00000
   312  U     c     -5.4682      -8.2023       2.7341     -2.51000    1.00000
   313  U     c      5.4682       8.2023       2.7341     -2.51000    1.00000
   314  U     c     -8.2023      -5.4682       2.7341     -2.51000    1.00000
   315  U     c     -5.4682       8.2023       2.7341     -2.51000    1.00000
   316  U     c     -8.2023       5.4682       2.7341     -2.51000    1.00000
   317  U     c      8.2023      -5.4682       2.7341     -2.51000    1.00000
   318  U     c      5.4682      -8.2023       2.7341     -2.51000    1.00000
   319  U     c      5.4682       8.2023      -2.7341     -2.51000    1.00000
   320  U     c     -8.2023      -5.4682      -2.7341     -2.51000    1.00000
   321  U     c     -8.2023       5.4682      -2.7341     -2.51000    1.00000
   322  U     c     -5.4682       8.2023      -2.7341     -2.51000    1.00000
   323  U     c      8.2023       5.4682      -2.7341     -2.51000    1.00000
   324  U     c     -5.4682      -8.2023      -2.7341     -2.51000    1.00000
   325  U     c      5.4682      -8.2023      -2.7341     -2.51000    1.00000
   326  U     c      8.2023      -5.4682      -2.7341     -2.51000    1.00000
   327  U     c      2.7341       8.2023      -5.4682     -2.51000    1.00000
   328  U     c     -8.2023      -2.7341      -5.4682     -2.51000    1.00000
   329  U     c     -8.2023       2.7341      -5.4682     -2.51000    1.00000
   330  U     c      8.2023       2.7341      -5.4682     -2.51000    1.00000
   331  U     c     -2.7341      -8.2023      -5.4682     -2.51000    1.00000
   332  U     c      2.7341      -8.2023      -5.4682     -2.51000    1.00000
   333  U     c     -2.7341       8.2023      -5.4682     -2.51000    1.00000
   334  U     c      8.2023      -2.7341      -5.4682     -2.51000    1.00000
   335  U     c     -5.4682      -2.7341      -8.2023     -2.51000    1.00000
   336  U     c      2.7341       5.4682      -8.2023     -2.51000    1.00000
   337  U     c     -2.7341      -5.4682      -8.2023     -2.51000    1.00000
   338  U     c      5.4682       2.7341      -8.2023     -2.51000    1.00000
   339  U     c     -5.4682       2.7341      -8.2023     -2.51000    1.00000
   340  U     c     -2.7341       5.4682      -8.2023     -2.51000    1.00000
   341  U     c      2.7341      -5.4682      -8.2023     -2.51000    1.00000
   342  U     c      5.4682      -2.7341      -8.2023     -2.51000    1.00000
   343  O     c      4.1012       1.3671       9.5694      2.40000    1.00000
   344  O     c     -1.3671      -4.1012       9.5694      2.40000    1.00000
   345  O     c      1.3671       4.1012       9.5694      2.40000    1.00000
   346  O     c     -4.1012      -1.3671       9.5694      2.40000    1.00000
   347  O     c      1.3671      -4.1012       9.5694      2.40000    1.00000
   348  O     c     -4.1012       1.3671       9.5694      2.40000    1.00000
   349  O     c      4.1012      -1.3671       9.5694      2.40000    1.00000
   350  O     c     -1.3671       4.1012       9.5694      2.40000    1.00000
   351  O     c     -4.1012      -6.8353       6.8353      2.40000    1.00000
   352  O     c     -6.8353      -4.1012       6.8353      2.40000    1.00000
   353  O     c     -4.1012       6.8353       6.8353      2.40000    1.00000
   354  O     c      6.8353      -4.1012       6.8353      2.40000    1.00000
   355  O     c     -6.8353       4.1012       6.8353      2.40000    1.00000
   356  O     c      4.1012      -6.8353       6.8353      2.40000    1.00000
   357  O     c      6.8353       4.1012       6.8353      2.40000    1.00000
   358  O     c      4.1012       6.8353       6.8353      2.40000    1.00000
   359  O     c     -6.8353      -6.8353       4.1012      2.40000    1.00000
   360  O     c     -6.8353       6.8353       4.1012      2.40000    1.00000
   361  O     c      6.8353      -6.8353       4.1012      2.40000    1.00000
   362  O     c      6.8353       6.8353       4.1012      2.40000    1.00000
   363  O     c     -9.5694       1.3671       4.1012      2.40000    1.00000
   364  O     c      1.3671      -9.5694       4.1012      2.40000    1.00000
   365  O     c     -1.3671       9.5694       4.1012      2.40000    1.00000
   366  O     c      9.5694      -1.3671       4.1012      2.40000    1.00000
   367  O     c      1.3671       9.5694       4.1012      2.40000    1.00000
   368  O     c     -9.5694      -1.3671       4.1012      2.40000    1.00000
   369  O     c      9.5694       1.3671       4.1012      2.40000    1.00000
   370  O     c     -1.3671      -9.5694       4.1012      2.40000    1.00000
   371  O     c     -9.5694       4.1012       1.3671      2.40000    1.00000
   372  O     c      4.1012      -9.5694       1.3671      2.40000    1.00000
   373  O     c      4.1012       9.5694       1.3671      2.40000    1.00000
   374  O     c      9.5694       4.1012       1.3671      2.40000    1.00000
   375  O     c     -4.1012       9.5694       1.3671      2.40000    1.00000
   376  O     c      9.5694      -4.1012       1.3671      2.40000    1.00000
   377  O     c     -9.5694      -4.1012       1.3671      2.40000    1.00000
   378  O     c     -4.1012      -9.5694       1.3671      2.40000    1.00000
   379  O     c     -9.5694      -4.1012      -1.3671      2.40000    1.00000
   380  O     c     -4.1012      -9.5694      -1.3671      2.40000    1.00000
   381  O     c     -9.5694       4.1012      -1.3671      2.40000    1.00000
   382  O     c     -4.1012       9.5694      -1.3671      2.40000    1.00000
   383  O     c      4.1012      -9.5694      -1.3671      2.40000    1.00000
   384  O     c      9.5694      -4.1012      -1.3671      2.40000    1.00000
   385  O     c      4.1012       9.5694      -1.3671      2.40000    1.00000
   386  O     c      9.5694       4.1012      -1.3671      2.40000    1.00000
   387  O     c      6.8353       6.8353      -4.1012      2.40000    1.00000
   388  O     c     -6.8353       6.8353      -4.1012      2.40000    1.00000
   389  O     c      6.8353      -6.8353      -4.1012      2.40000    1.00000
   390  O     c     -6.8353      -6.8353      -4.1012      2.40000    1.00000
   391  O     c     -9.5694      -1.3671      -4.1012      2.40000    1.00000
   392  O     c     -1.3671      -9.5694      -4.1012      2.40000    1.00000
   393  O     c     -9.5694       1.3671      -4.1012      2.40000    1.00000
   394  O     c     -1.3671       9.5694      -4.1012      2.40000    1.00000
   395  O     c      1.3671      -9.5694      -4.1012      2.40000    1.00000
   396  O     c      9.5694      -1.3671      -4.1012      2.40000    1.00000
   397  O     c      1.3671       9.5694      -4.1012      2.40000    1.00000
   398  O     c      9.5694       1.3671      -4.1012      2.40000    1.00000
   399  O     c      4.1012       6.8353      -6.8353      2.40000    1.00000
   400  O     c      6.8353       4.1012      -6.8353      2.40000    1.00000
   401  O     c     -6.8353       4.1012      -6.8353      2.40000    1.00000
   402  O     c      4.1012      -6.8353      -6.8353      2.40000    1.00000
   403  O     c     -6.8353      -4.1012      -6.8353      2.40000    1.00000
   404  O     c     -4.1012      -6.8353      -6.8353      2.40000    1.00000
   405  O     c     -4.1012       6.8353      -6.8353      2.40000    1.00000
   406  O     c      6.8353      -4.1012      -6.8353      2.40000    1.00000
   407  O     c     -4.1012       1.3671      -9.5694      2.40000    1.00000
   408  O     c     -1.3671       4.1012      -9.5694      2.40000    1.00000
   409  O     c      1.3671      -4.1012      -9.5694      2.40000    1.00000
   410  O     c      4.1012      -1.3671      -9.5694      2.40000    1.00000
   411  O     c     -4.1012      -1.3671      -9.5694      2.40000    1.00000
   412  O     c     -1.3671      -4.1012      -9.5694      2.40000    1.00000
   413  O     c      1.3671       4.1012      -9.5694      2.40000    1.00000
   414  O     c      4.1012       1.3671      -9.5694      2.40000    1.00000
   415  U     c      0.0000       0.0000      10.9364     -2.51000    1.00000
   416  U     c      0.0000      10.9364      -0.0000     -2.51000    1.00000
   417  U     c    -10.9364       0.0000      -0.0000     -2.51000    1.00000
   418  U     c     10.9364       0.0000       0.0000     -2.51000    1.00000
   419  U     c      0.0000     -10.9364       0.0000     -2.51000    1.00000
   420  U     c      0.0000       0.0000     -10.9364     -2.51000    1.00000
   421  O     c      4.1012      -4.1012       9.5694      2.40000    1.00000
   422  O     c     -4.1012       4.1012       9.5694      2.40000    1.00000
   423  O     c     -4.1012      -4.1012       9.5694      2.40000    1.00000
   424  O     c      4.1012       4.1012       9.5694      2.40000    1.00000
   425  O     c     -4.1012      -9.5694       4.1012      2.40000    1.00000
   426  O     c     -9.5694      -4.1012       4.1012      2.40000    1.00000
   427  O     c     -4.1012       9.5694       4.1012      2.40000    1.00000
   428  O     c     -9.5694       4.1012       4.1012      2.40000    1.00000
   429  O     c      9.5694      -4.1012       4.1012      2.40000    1.00000
   430  O     c      4.1012      -9.5694       4.1012      2.40000    1.00000
   431  O     c      9.5694       4.1012       4.1012      2.40000    1.00000
   432  O     c      4.1012       9.5694       4.1012      2.40000    1.00000
   433  O     c     -9.5694       4.1012      -4.1012      2.40000    1.00000
   434  O     c      4.1012      -9.5694      -4.1012      2.40000    1.00000
   435  O     c      4.1012       9.5694      -4.1012      2.40000    1.00000
   436  O     c      9.5694       4.1012      -4.1012      2.40000    1.00000
   437  O     c     -4.1012       9.5694      -4.1012      2.40000    1.00000
   438  O     c      9.5694      -4.1012      -4.1012      2.40000    1.00000
   439  O     c     -9.5694      -4.1012      -4.1012      2.40000    1.00000
   440  O     c     -4.1012      -9.5694      -4.1012      2.40000    1.00000
   441  O     c      4.1012       4.1012      -9.5694      2.40000    1.00000
   442  O     c     -4.1012       4.1012      -9.5694      2.40000    1.00000
   443  O     c      4.1012      -4.1012      -9.5694      2.40000    1.00000
   444  O     c     -4.1012      -4.1012      -9.5694      2.40000    1.00000
   445  U     c      2.7341       2.7341      10.9364     -2.51000    1.00000
   446  U     c     -2.7341      -2.7341      10.9364     -2.51000    1.00000
   447  U     c      2.7341      -2.7341      10.9364     -2.51000    1.00000
   448  U     c     -2.7341       2.7341      10.9364     -2.51000    1.00000
   449  U     c      8.2023       0.0000       8.2023     -2.51000    1.00000
   450  U     c      0.0000      -8.2023       8.2023     -2.51000    1.00000
   451  U     c      0.0000       8.2023       8.2023     -2.51000    1.00000
   452  U     c     -8.2023       0.0000       8.2023     -2.51000    1.00000
   453  U     c      2.7341      10.9364       2.7341     -2.51000    1.00000
   454  U     c    -10.9364      -2.7341       2.7341     -2.51000    1.00000
   455  U     c     -2.7341      10.9364       2.7341     -2.51000    1.00000
   456  U     c    -10.9364       2.7341       2.7341     -2.51000    1.00000
   457  U     c     10.9364       2.7341       2.7341     -2.51000    1.00000
   458  U     c     -2.7341     -10.9364       2.7341     -2.51000    1.00000
   459  U     c     10.9364      -2.7341       2.7341     -2.51000    1.00000
   460  U     c      2.7341     -10.9364       2.7341     -2.51000    1.00000
   461  U     c      8.2023       8.2023       0.0000     -2.51000    1.00000
   462  U     c     -8.2023      -8.2023       0.0000     -2.51000    1.00000
   463  U     c     -8.2023       8.2023      -0.0000     -2.51000    1.00000
   464  U     c      8.2023      -8.2023      -0.0000     -2.51000    1.00000
   465  U     c      2.7341      10.9364      -2.7341     -2.51000    1.00000
   466  U     c    -10.9364      -2.7341      -2.7341     -2.51000    1.00000
   467  U     c    -10.9364       2.7341      -2.7341     -2.51000    1.00000
   468  U     c     10.9364       2.7341      -2.7341     -2.51000    1.00000
   469  U     c     -2.7341     -10.9364      -2.7341     -2.51000    1.00000
   470  U     c      2.7341     -10.9364      -2.7341     -2.51000    1.00000
   471  U     c     -2.7341      10.9364      -2.7341     -2.51000    1.00000
   472  U     c     10.9364      -2.7341      -2.7341     -2.51000    1.00000
   473  U     c     -8.2023       0.0000      -8.2023     -2.51000    1.00000
   474  U     c     -0.0000       8.2023      -8.2023     -2.51000    1.00000
   475  U     c      0.0000      -8.2023      -8.2023     -2.51000    1.00000
   476  U     c      8.2023      -0.0000      -8.2023     -2.51000    1.00000
   477  U     c     -2.7341      -2.7341     -10.9364     -2.51000    1.00000
   478  U     c      2.7341       2.7341     -10.9364     -2.51000    1.00000
   479  U     c     -2.7341       2.7341     -10.9364     -2.51000    1.00000
   480  U     c      2.7341      -2.7341     -10.9364     -2.51000    1.00000
   481  O     c      6.8353      -1.3671       9.5694      2.40000    1.00000
   482  O     c     -1.3671       6.8353       9.5694      2.40000    1.00000
   483  O     c      1.3671      -6.8353       9.5694      2.40000    1.00000
   484  O     c     -6.8353       1.3671       9.5694      2.40000    1.00000
   485  O     c     -1.3671      -6.8353       9.5694      2.40000    1.00000
   486  O     c     -6.8353      -1.3671       9.5694      2.40000    1.00000
   487  O     c      6.8353       1.3671       9.5694      2.40000    1.00000
   488  O     c      1.3671       6.8353       9.5694      2.40000    1.00000
   489  O     c     -1.3671      -9.5694       6.8353      2.40000    1.00000
   490  O     c     -9.5694      -1.3671       6.8353      2.40000    1.00000
   491  O     c     -1.3671       9.5694       6.8353      2.40000    1.00000
   492  O     c     -9.5694       1.3671       6.8353      2.40000    1.00000
   493  O     c      9.5694      -1.3671       6.8353      2.40000    1.00000
   494  O     c      1.3671      -9.5694       6.8353      2.40000    1.00000
   495  O     c      9.5694       1.3671       6.8353      2.40000    1.00000
   496  O     c      1.3671       9.5694       6.8353      2.40000    1.00000
   497  O     c      6.8353       6.8353       6.8353      2.40000    1.00000
   498  O     c     -6.8353      -6.8353       6.8353      2.40000    1.00000
   499  O     c     -6.8353       6.8353       6.8353      2.40000    1.00000
   500  O     c      6.8353      -6.8353       6.8353      2.40000    1.00000
   501  O     c     -6.8353      -9.5694       1.3671      2.40000    1.00000
   502  O     c     -9.5694      -6.8353       1.3671      2.40000    1.00000
   503  O     c     -9.5694       6.8353       1.3671      2.40000    1.00000
   504  O     c     -6.8353       9.5694       1.3671      2.40000    1.00000
   505  O     c      6.8353      -9.5694       1.3671      2.40000    1.00000
   506  O     c      9.5694      -6.8353       1.3671      2.40000    1.00000
   507  O     c      9.5694       6.8353       1.3671      2.40000    1.00000
   508  O     c      6.8353       9.5694       1.3671      2.40000    1.00000
   509  O     c     -9.5694       6.8353      -1.3671      2.40000    1.00000
   510  O     c      6.8353      -9.5694      -1.3671      2.40000    1.00000
   511  O     c      6.8353       9.5694      -1.3671      2.40000    1.00000
   512  O     c      9.5694       6.8353      -1.3671      2.40000    1.00000
   513  O     c     -6.8353       9.5694      -1.3671      2.40000    1.00000
   514  O     c      9.5694      -6.8353      -1.3671      2.40000    1.00000
   515  O     c     -9.5694      -6.8353      -1.3671      2.40000    1.00000
   516  O     c     -6.8353      -9.5694      -1.3671      2.40000    1.00000
   517  O     c      1.3671       9.5694      -6.8353      2.40000    1.00000
   518  O     c      9.5694       1.3671      -6.8353      2.40000    1.00000
   519  O     c     -9.5694       1.3671      -6.8353      2.40000    1.00000
   520  O     c     -1.3671       9.5694      -6.8353      2.40000    1.00000
   521  O     c      1.3671      -9.5694      -6.8353      2.40000    1.00000
   522  O     c      9.5694      -1.3671      -6.8353      2.40000    1.00000
   523  O     c     -9.5694      -1.3671      -6.8353      2.40000    1.00000
   524  O     c     -1.3671      -9.5694      -6.8353      2.40000    1.00000
   525  O     c     -6.8353      -6.8353      -6.8353      2.40000    1.00000
   526  O     c     -6.8353       6.8353      -6.8353      2.40000    1.00000
   527  O     c      6.8353      -6.8353      -6.8353      2.40000    1.00000
   528  O     c      6.8353       6.8353      -6.8353      2.40000    1.00000
   529  O     c      1.3671       6.8353      -9.5694      2.40000    1.00000
   530  O     c      6.8353       1.3671      -9.5694      2.40000    1.00000
   531  O     c     -6.8353       1.3671      -9.5694      2.40000    1.00000
   532  O     c      1.3671      -6.8353      -9.5694      2.40000    1.00000
   533  O     c     -6.8353      -1.3671      -9.5694      2.40000    1.00000
   534  O     c     -1.3671      -6.8353      -9.5694      2.40000    1.00000
   535  O     c     -1.3671       6.8353      -9.5694      2.40000    1.00000
   536  O     c      6.8353      -1.3671      -9.5694      2.40000    1.00000
   537  U     c      5.4682       0.0000      10.9364     -2.51000    1.00000
   538  U     c      0.0000      -5.4682      10.9364     -2.51000    1.00000
   539  U     c      0.0000       5.4682      10.9364     -2.51000    1.00000
   540  U     c     -5.4682       0.0000      10.9364     -2.51000    1.00000
   541  U     c      0.0000      10.9364       5.4682     -2.51000    1.00000
   542  U     c    -10.9364       0.0000       5.4682     -2.51000    1.00000
   543  U     c     10.9364       0.0000       5.4682     -2.51000    1.00000
   544  U     c      0.0000     -10.9364       5.4682     -2.51000    1.00000
   545  U     c      5.4682      10.9364      -0.0000     -2.51000    1.00000
   546  U     c    -10.9364      -5.4682      -0.0000     -2.51000    1.00000
   547  U     c     10.9364       5.4682       0.0000     -2.51000    1.00000
   548  U     c     -5.4682     -10.9364       0.0000     -2.51000    1.00000
   549  U     c     -5.4682      10.9364      -0.0000     -2.51000    1.00000
   550  U     c    -10.9364       5.4682      -0.0000     -2.51000    1.00000
   551  U     c     10.9364      -5.4682      -0.0000     -2.51000    1.00000
   552  U     c      5.4682     -10.9364      -0.0000     -2.51000    1.00000
   553  U     c     -0.0000      10.9364      -5.4682     -2.51000    1.00000
   554  U     c    -10.9364       0.0000      -5.4682     -2.51000    1.00000
   555  U     c     10.9364      -0.0000      -5.4682     -2.51000    1.00000
   556  U     c      0.0000     -10.9364      -5.4682     -2.51000    1.00000
   557  U     c     -5.4682       0.0000     -10.9364     -2.51000    1.00000
   558  U     c     -0.0000       5.4682     -10.9364     -2.51000    1.00000
   559  U     c      0.0000      -5.4682     -10.9364     -2.51000    1.00000
   560  U     c      5.4682      -0.0000     -10.9364     -2.51000    1.00000
   561  O     c      1.3671       1.3671      12.3035      2.40000    1.00000
   562  O     c     -1.3671      -1.3671      12.3035      2.40000    1.00000
   563  O     c      1.3671      -1.3671      12.3035      2.40000    1.00000
   564  O     c     -1.3671       1.3671      12.3035      2.40000    1.00000
   565  O     c      6.8353       4.1012       9.5694      2.40000    1.00000
   566  O     c     -4.1012      -6.8353       9.5694      2.40000    1.00000
   567  O     c      4.1012       6.8353       9.5694      2.40000    1.00000
   568  O     c     -6.8353      -4.1012       9.5694      2.40000    1.00000
   569  O     c      6.8353      -4.1012       9.5694      2.40000    1.00000
   570  O     c      4.1012      -6.8353       9.5694      2.40000    1.00000
   571  O     c     -4.1012       6.8353       9.5694      2.40000    1.00000
   572  O     c     -6.8353       4.1012       9.5694      2.40000    1.00000
   573  O     c      4.1012      -9.5694       6.8353      2.40000    1.00000
   574  O     c      9.5694       4.1012       6.8353      2.40000    1.00000
   575  O     c     -4.1012      -9.5694       6.8353      2.40000    1.00000
   576  O     c      4.1012       9.5694       6.8353      2.40000    1.00000
   577  O     c     -9.5694      -4.1012       6.8353      2.40000    1.00000
   578  O     c     -4.1012       9.5694       6.8353      2.40000    1.00000
   579  O     c     -9.5694       4.1012       6.8353      2.40000    1.00000
   580  O     c      9.5694      -4.1012       6.8353      2.40000    1.00000
   581  O     c      6.8353      -9.5694       4.1012      2.40000    1.00000
   582  O     c     -6.8353       9.5694       4.1012      2.40000    1.00000
   583  O     c     -9.5694       6.8353       4.1012      2.40000    1.00000
   584  O     c      9.5694      -6.8353       4.1012      2.40000    1.00000
   585  O     c      9.5694       6.8353       4.1012      2.40000    1.00000
   586  O     c     -6.8353      -9.5694       4.1012      2.40000    1.00000
   587  O     c      6.8353       9.5694       4.1012      2.40000    1.00000
   588  O     c     -9.5694      -6.8353       4.1012      2.40000    1.00000
   589  O     c    -12.3035       1.3671       1.3671      2.40000    1.00000
   590  O     c      1.3671     -12.3035       1.3671      2.40000    1.00000
   591  O     c      1.3671      12.3035       1.3671      2.40000    1.00000
   592  O     c    -12.3035      -1.3671       1.3671      2.40000    1.00000
   593  O     c     12.3035       1.3671       1.3671      2.40000    1.00000
   594  O     c     -1.3671     -12.3035       1.3671      2.40000    1.00000
   595  O     c     -1.3671      12.3035       1.3671      2.40000    1.00000
   596  O     c     12.3035      -1.3671       1.3671      2.40000    1.00000
   597  O     c    -12.3035      -1.3671      -1.3671      2.40000    1.00000
   598  O     c     -1.3671     -12.3035      -1.3671      2.40000    1.00000
   599  O     c     -1.3671      12.3035      -1.3671      2.40000    1.00000
   600  O     c    -12.3035       1.3671      -1.3671      2.40000    1.00000
   601  O     c     12.3035      -1.3671      -1.3671      2.40000    1.00000
   602  O     c      1.3671     -12.3035      -1.3671      2.40000    1.00000
   603  O     c      1.3671      12.3035      -1.3671      2.40000    1.00000
   604  O     c     12.3035       1.3671      -1.3671      2.40000    1.00000
   605  O     c     -9.5694      -6.8353      -4.1012      2.40000    1.00000
   606  O     c     -6.8353      -9.5694      -4.1012      2.40000    1.00000
   607  O     c     -9.5694       6.8353      -4.1012      2.40000    1.00000
   608  O     c     -6.8353       9.5694      -4.1012      2.40000    1.00000
   609  O     c      6.8353      -9.5694      -4.1012      2.40000    1.00000
   610  O     c      9.5694      -6.8353      -4.1012      2.40000    1.00000
   611  O     c      6.8353       9.5694      -4.1012      2.40000    1.00000
   612  O     c      9.5694       6.8353      -4.1012      2.40000    1.00000
   613  O     c     -9.5694      -4.1012      -6.8353      2.40000    1.00000
   614  O     c     -4.1012      -9.5694      -6.8353      2.40000    1.00000
   615  O     c     -9.5694       4.1012      -6.8353      2.40000    1.00000
   616  O     c     -4.1012       9.5694      -6.8353      2.40000    1.00000
   617  O     c      4.1012      -9.5694      -6.8353      2.40000    1.00000
   618  O     c      9.5694      -4.1012      -6.8353      2.40000    1.00000
   619  O     c      4.1012       9.5694      -6.8353      2.40000    1.00000
   620  O     c      9.5694       4.1012      -6.8353      2.40000    1.00000
   621  O     c     -6.8353      -4.1012      -9.5694      2.40000    1.00000
   622  O     c     -4.1012      -6.8353      -9.5694      2.40000    1.00000
   623  O     c     -6.8353       4.1012      -9.5694      2.40000    1.00000
   624  O     c     -4.1012       6.8353      -9.5694      2.40000    1.00000
   625  O     c      4.1012      -6.8353      -9.5694      2.40000    1.00000
   626  O     c      6.8353      -4.1012      -9.5694      2.40000    1.00000
   627  O     c      4.1012       6.8353      -9.5694      2.40000    1.00000
   628  O     c      6.8353       4.1012      -9.5694      2.40000    1.00000
   629  O     c     -1.3671      -1.3671     -12.3035      2.40000    1.00000
   630  O     c     -1.3671       1.3671     -12.3035      2.40000    1.00000
   631  O     c      1.3671      -1.3671     -12.3035      2.40000    1.00000
   632  O     c      1.3671       1.3671     -12.3035      2.40000    1.00000
   633  U     c      8.2023       5.4682       8.2023     -2.51000    1.00000
   634  U     c     -5.4682      -8.2023       8.2023     -2.51000    1.00000
   635  U     c      5.4682       8.2023       8.2023     -2.51000    1.00000
   636  U     c     -8.2023      -5.4682       8.2023     -2.51000    1.00000
   637  U     c     -5.4682       8.2023       8.2023     -2.51000    1.00000
   638  U     c     -8.2023       5.4682       8.2023     -2.51000    1.00000
   639  U     c      8.2023      -5.4682       8.2023     -2.51000    1.00000
   640  U     c      5.4682      -8.2023       8.2023     -2.51000    1.00000
   641  U     c      8.2023       8.2023       5.4682     -2.51000    1.00000
   642  U     c     -8.2023      -8.2023       5.4682     -2.51000    1.00000
   643  U     c     -8.2023       8.2023       5.4682     -2.51000    1.00000
   644  U     c      8.2023      -8.2023       5.4682     -2.51000    1.00000
   645  U     c     -8.2023       8.2023      -5.4682     -2.51000    1.00000
   646  U     c      8.2023       8.2023      -5.4682     -2.51000    1.00000
   647  U     c     -8.2023      -8.2023      -5.4682     -2.51000    1.00000
   648  U     c      8.2023      -8.2023      -5.4682     -2.51000    1.00000
   649  U     c     -8.2023       5.4682      -8.2023     -2.51000    1.00000
   650  U     c     -5.4682       8.2023      -8.2023     -2.51000    1.00000
   651  U     c      5.4682       8.2023      -8.2023     -2.51000    1.00000
   652  U     c     -8.2023      -5.4682      -8.2023     -2.51000    1.00000
   653  U     c      8.2023       5.4682      -8.2023     -2.51000    1.00000
   654  U     c     -5.4682      -8.2023      -8.2023     -2.51000    1.00000
   655  U     c      5.4682      -8.2023      -8.2023     -2.51000    1.00000
   656  U     c      8.2023      -5.4682      -8.2023     -2.51000    1.00000
   657  O     c      4.1012      -1.3671      12.3035      2.40000    1.00000
   658  O     c      1.3671      -4.1012      12.3035      2.40000    1.00000
   659  O     c     -1.3671       4.1012      12.3035      2.40000    1.00000
   660  O     c     -4.1012       1.3671      12.3035      2.40000    1.00000
   661  O     c      4.1012       1.3671      12.3035      2.40000    1.00000
   662  O     c     -1.3671      -4.1012      12.3035      2.40000    1.00000
   663  O     c      1.3671       4.1012      12.3035      2.40000    1.00000
   664  O     c     -4.1012      -1.3671      12.3035      2.40000    1.00000
   665  O     c    -12.3035      -1.3671       4.1012      2.40000    1.00000
   666  O     c     -1.3671     -12.3035       4.1012      2.40000    1.00000
   667  O     c     -1.3671      12.3035       4.1012      2.40000    1.00000
   668  O     c    -12.3035       1.3671       4.1012      2.40000    1.00000
   669  O     c     12.3035      -1.3671       4.1012      2.40000    1.00000
   670  O     c      1.3671     -12.3035       4.1012      2.40000    1.00000
   671  O     c      1.3671      12.3035       4.1012      2.40000    1.00000
   672  O     c     12.3035       1.3671       4.1012      2.40000    1.00000
   673  O     c    -12.3035      -4.1012       1.3671      2.40000    1.00000
   674  O     c     -4.1012     -12.3035       1.3671      2.40000    1.00000
   675  O     c     -4.1012      12.3035       1.3671      2.40000    1.00000
   676  O     c    -12.3035       4.1012       1.3671      2.40000    1.00000
   677  O     c     12.3035      -4.1012       1.3671      2.40000    1.00000
   678  O     c      4.1012     -12.3035       1.3671      2.40000    1.00000
   679  O     c      4.1012      12.3035       1.3671      2.40000    1.00000
   680  O     c     12.3035       4.1012       1.3671      2.40000    1.00000
   681  O     c    -12.3035       4.1012      -1.3671      2.40000    1.00000
   682  O     c      4.1012     -12.3035      -1.3671      2.40000    1.00000
   683  O     c      4.1012      12.3035      -1.3671      2.40000    1.00000
   684  O     c    -12.3035      -4.1012      -1.3671      2.40000    1.00000
   685  O     c     12.3035       4.1012      -1.3671      2.40000    1.00000
   686  O     c     -4.1012     -12.3035      -1.3671      2.40000    1.00000
   687  O     c     -4.1012      12.3035      -1.3671      2.40000    1.00000
   688  O     c     12.3035      -4.1012      -1.3671      2.40000    1.00000
   689  O     c    -12.3035       1.3671      -4.1012      2.40000    1.00000
   690  O     c      1.3671     -12.3035      -4.1012      2.40000    1.00000
   691  O     c      1.3671      12.3035      -4.1012      2.40000    1.00000
   692  O     c    -12.3035      -1.3671      -4.1012      2.40000    1.00000
   693  O     c     12.3035       1.3671      -4.1012      2.40000    1.00000
   694  O     c     -1.3671     -12.3035      -4.1012      2.40000    1.00000
   695  O     c     -1.3671      12.3035      -4.1012      2.40000    1.00000
   696  O     c     12.3035      -1.3671      -4.1012      2.40000    1.00000
   697  O     c     -4.1012      -1.3671     -12.3035      2.40000    1.00000
   698  O     c      1.3671       4.1012     -12.3035      2.40000    1.00000
   699  O     c     -1.3671      -4.1012     -12.3035      2.40000    1.00000
   700  O     c      4.1012       1.3671     -12.3035      2.40000    1.00000
[...]
    201 x         -5.468223     -5.458150     0.010072    Cartesian   -0.18
    201 y         -2.734111     -2.726021     0.008090    Cartesian   -0.30
    201 z         -8.202334     -8.184471     0.017863    Cartesian   -0.22
    202 x          4.101167      4.101243     0.000076    Cartesian    0.00
    202 y          1.367056      1.368625     0.001569    Cartesian    0.11
    202 z          9.569389      9.567012    -0.002378    Cartesian   -0.02
    203 x         -4.101167     -4.099624     0.001543    Cartesian   -0.04
    203 y         -6.835278     -6.830757     0.004521    Cartesian   -0.07
    203 z          6.835278      6.830142    -0.005136    Cartesian   -0.08
    204 x         -6.835278     -6.830665     0.004613    Cartesian   -0.07
    204 y         -6.835278     -6.830665     0.004613    Cartesian   -0.07
    204 z          4.101167      4.099243    -0.001924    Cartesian   -0.05
    205 x         -9.569389     -9.567695     0.001695    Cartesian   -0.02
    205 y          1.367056      1.368733     0.001678    Cartesian    0.12
    205 z          4.101167      4.100381    -0.000786    Cartesian   -0.02
    206 x         -9.569389     -9.567766     0.001624    Cartesian   -0.02
    206 y          4.101167      4.101241     0.000074    Cartesian    0.00
    206 z          1.367056      1.368030     0.000974    Cartesian    0.07
    207 x         -9.569389     -9.567939     0.001450    Cartesian   -0.02
    207 y         -4.101167     -4.101078     0.000089    Cartesian   -0.00
    207 z         -1.367056     -1.369396    -0.002340    Cartesian    0.17
    208 x          6.835278      6.830768    -0.004511    Cartesian   -0.07
    208 y          6.835278      6.830768    -0.004511    Cartesian   -0.07
    208 z         -4.101167     -4.099929     0.001238    Cartesian   -0.03
    209 x         -9.569389     -9.568324     0.001065    Cartesian   -0.01
    209 y         -1.367056     -1.368368    -0.001312    Cartesian    0.10
    209 z         -4.101167     -4.105366    -0.004199    Cartesian    0.10
    210 x          4.101167      4.098466    -0.002701    Cartesian   -0.07
    210 y          6.835278      6.834140    -0.001138    Cartesian   -0.02
    210 z         -6.835278     -6.835643    -0.000365    Cartesian    0.01
    211 x         -4.101167     -4.103111    -0.001944    Cartesian    0.05
    211 y          1.367056      1.367702     0.000646    Cartesian    0.05
    211 z         -9.569389     -9.574465    -0.005075    Cartesian    0.05
    212 x          0.000000      0.000000     0.000000    Cartesian    0.00
    212 y          0.000000      0.000000     0.000000    Cartesian    0.00
    212 z         10.936445     10.914359    -0.022087    Cartesian   -0.20
    213 x          0.000000      0.000000     0.000000    Cartesian    0.00
    213 y         10.936445     10.914591    -0.021854    Cartesian   -0.20
    213 z         -0.000000     -0.001389    -0.001389    Cartesian *******
    214 x          0.000000      0.000000     0.000000    Cartesian    0.00
    214 y          0.000000      0.000000     0.000000    Cartesian    0.00
    214 z        -10.936445    -10.931459     0.004986    Cartesian   -0.05
    215 x          4.101167      4.098212    -0.002955    Cartesian   -0.07
    215 y         -4.101167     -4.098212     0.002955    Cartesian   -0.07
    215 z          9.569389      9.572696     0.003306    Cartesian    0.03
    216 x         -4.101167     -4.098174     0.002993    Cartesian   -0.07
    216 y         -9.569389     -9.573326    -0.003937    Cartesian    0.04
    216 z          4.101167      4.097895    -0.003272    Cartesian   -0.08
    217 x         -9.569389     -9.574389    -0.004999    Cartesian    0.05
    217 y          4.101167      4.098179    -0.002988    Cartesian   -0.07
    217 z         -4.101167     -4.099356     0.001811    Cartesian   -0.04
    218 x          4.101167      4.098972    -0.002195    Cartesian   -0.05
    218 y          4.101167      4.098972    -0.002195    Cartesian   -0.05
    218 z         -9.569389     -9.577731    -0.008341    Cartesian    0.09
    219 x          2.734111      2.734510     0.000399    Cartesian    0.01
    219 y          2.734111      2.734510     0.000399    Cartesian    0.01
    219 z         10.936445     10.923673    -0.012772    Cartesian   -0.12
    220 x          8.202334      8.182571    -0.019763    Cartesian   -0.24
    220 y          0.000000      0.000000     0.000000    Cartesian    0.00
    220 z          8.202334      8.181995    -0.020339    Cartesian   -0.25
    221 x          2.734111      2.734498     0.000387    Cartesian    0.01
    221 y         10.936445     10.924178    -0.012268    Cartesian   -0.11
    221 z          2.734111      2.733695    -0.000416    Cartesian   -0.02
    222 x          8.202334      8.182294    -0.020040    Cartesian   -0.24
    222 y          8.202334      8.182294    -0.020040    Cartesian   -0.24
    222 z          0.000000     -0.000973    -0.000973    Cartesian *******
    223 x          2.734111      2.734205     0.000093    Cartesian    0.00
    223 y         10.936445     10.924604    -0.011841    Cartesian   -0.11
    223 z         -2.734111     -2.736015    -0.001904    Cartesian    0.07
    224 x         -8.202334     -8.187387     0.014946    Cartesian   -0.18
    224 y          0.000000      0.000000     0.000000    Cartesian    0.00
    224 z         -8.202334     -8.190067     0.012267    Cartesian   -0.15
    225 x         -2.734111     -2.732175     0.001937    Cartesian   -0.07
    225 y         -2.734111     -2.732175     0.001937    Cartesian   -0.07
    225 z        -10.936445    -10.933432     0.003013    Cartesian   -0.03
    226 x          6.835278      6.835357     0.000078    Cartesian    0.00
    226 y         -1.367056     -1.364432     0.002624    Cartesian   -0.19
    226 z          9.569389      9.566479    -0.002910    Cartesian   -0.03
    227 x         -1.367056     -1.364432     0.002624    Cartesian   -0.19
    227 y         -9.569389     -9.566809     0.002581    Cartesian   -0.03
    227 z          6.835278      6.834955    -0.000323    Cartesian   -0.00
    228 x          6.835278      6.839828     0.004550    Cartesian    0.07
    228 y          6.835278      6.839828     0.004550    Cartesian    0.07
    228 z          6.835278      6.839569     0.004291    Cartesian    0.06
    229 x         -6.835278     -6.835204     0.000074    Cartesian   -0.00
    229 y         -9.569389     -9.566724     0.002665    Cartesian   -0.03
    229 z          1.367056      1.364210    -0.002846    Cartesian   -0.21
    230 x         -9.569389     -9.566972     0.002417    Cartesian   -0.03
    230 y          6.835278      6.835727     0.000448    Cartesian    0.01
    230 z         -1.367056     -1.364740     0.002316    Cartesian   -0.17
    231 x          1.367056      1.363330    -0.003726    Cartesian   -0.27
    231 y          9.569389      9.568849    -0.000540    Cartesian   -0.01
    231 z         -6.835278     -6.840354    -0.005076    Cartesian    0.07
    232 x         -6.835278     -6.838515    -0.003236    Cartesian    0.05
    232 y         -6.835278     -6.838515    -0.003236    Cartesian    0.05
    232 z         -6.835278     -6.839462    -0.004184    Cartesian    0.06
    233 x          1.367056      1.363237    -0.003818    Cartesian   -0.28
    233 y          6.835278      6.838956     0.003678    Cartesian    0.05
    233 z         -9.569389     -9.570132    -0.000743    Cartesian    0.01
    234 x          5.468223      5.465221    -0.003001    Cartesian   -0.05
    234 y          0.000000      0.000000     0.000000    Cartesian    0.00
    234 z         10.936445     10.927496    -0.008949    Cartesian   -0.08
    235 x          0.000000      0.000000     0.000000    Cartesian    0.00
    235 y         10.936445     10.927916    -0.008529    Cartesian   -0.08
    235 z          5.468223      5.464631    -0.003592    Cartesian   -0.07
    236 x          5.468223      5.465095    -0.003128    Cartesian   -0.06
    236 y         10.936445     10.927594    -0.008851    Cartesian   -0.08
    236 z         -0.000000     -0.000739    -0.000739    Cartesian *******
    237 x         -0.000000     -0.000000     0.000000    Cartesian    0.00
    237 y         10.936445     10.924735    -0.011710    Cartesian   -0.11
    237 z         -5.468223     -5.468628    -0.000405    Cartesian    0.01
    238 x         -5.468223     -5.466666     0.001557    Cartesian   -0.03
    238 y          0.000000      0.000000     0.000000    Cartesian    0.00
    238 z        -10.936445    -10.927941     0.008504    Cartesian   -0.08
    239 x          1.367056      1.368015     0.000959    Cartesian    0.07
    239 y          1.367056      1.368015     0.000959    Cartesian    0.07
    239 z         12.303501     12.303904     0.000403    Cartesian    0.00
    240 x          6.835278      6.836907     0.001629    Cartesian    0.02
    240 y          4.101167      4.103511     0.002344    Cartesian    0.06
    240 z          9.569389      9.566692    -0.002697    Cartesian   -0.03
    241 x          4.101167      4.103523     0.002356    Cartesian    0.06
    241 y         -9.569389     -9.566967     0.002423    Cartesian   -0.03
    241 z          6.835278      6.836738     0.001460    Cartesian    0.02
    242 x          6.835278      6.837039     0.001760    Cartesian    0.03
    242 y         -9.569389     -9.566980     0.002409    Cartesian   -0.03
    242 z          4.101167      4.103381     0.002214    Cartesian    0.05
    243 x        -12.303501    -12.304343    -0.000842    Cartesian    0.01
    243 y          1.367056      1.368137     0.001081    Cartesian    0.08
    243 z          1.367056      1.367754     0.000699    Cartesian    0.05
    244 x        -12.303501    -12.304108    -0.000607    Cartesian    0.00
    244 y         -1.367056     -1.367877    -0.000821    Cartesian    0.06
    244 z         -1.367056     -1.368473    -0.001417    Cartesian    0.10
    245 x         -9.569389     -9.566604     0.002785    Cartesian   -0.03
    245 y         -6.835278     -6.836322    -0.001044    Cartesian    0.02
    245 z         -4.101167     -4.103980    -0.002813    Cartesian    0.07
    246 x         -9.569389     -9.571100    -0.001711    Cartesian    0.02
    246 y         -4.101167     -4.106793    -0.005626    Cartesian    0.14
    246 z         -6.835278     -6.837637    -0.002359    Cartesian    0.03
    247 x         -6.835278     -6.837101    -0.001822    Cartesian    0.03
    247 y         -4.101167     -4.106592    -0.005425    Cartesian    0.13
    247 z         -9.569389     -9.571402    -0.002012    Cartesian    0.02
    248 x         -1.367056     -1.369008    -0.001952    Cartesian    0.14
    248 y         -1.367056     -1.369008    -0.001952    Cartesian    0.14
    248 z        -12.303501    -12.313610    -0.010109    Cartesian    0.08
    249 x          8.202334      8.195873    -0.006461    Cartesian   -0.08
    249 y          5.468223      5.465699    -0.002523    Cartesian   -0.05
    249 z          8.202334      8.195492    -0.006842    Cartesian   -0.08
    250 x          8.202334      8.195813    -0.006521    Cartesian   -0.08
    250 y          8.202334      8.195813    -0.006521    Cartesian   -0.08
    250 z          5.468223      5.465312    -0.002911    Cartesian   -0.05
    251 x         -8.202334     -8.195554     0.006779    Cartesian   -0.08
    251 y          8.202334      8.195554    -0.006779    Cartesian   -0.08
    251 z         -5.468223     -5.467158     0.001065    Cartesian   -0.02
    252 x         -8.202334     -8.195588     0.006745    Cartesian   -0.08
    252 y          5.468223      5.463040    -0.005182    Cartesian   -0.09
    252 z         -8.202334     -8.196427     0.005907    Cartesian   -0.07
    253 x          4.101167      4.101757     0.000590    Cartesian    0.01
    253 y         -1.367056     -1.365897     0.001159    Cartesian   -0.08
    253 z         12.303501     12.304584     0.001084    Cartesian    0.01
    254 x        -12.303501    -12.304832    -0.001331    Cartesian    0.01
    254 y         -1.367056     -1.365849     0.001206    Cartesian   -0.09
    254 z          4.101167      4.101710     0.000543    Cartesian    0.01
    255 x        -12.303501    -12.304878    -0.001377    Cartesian    0.01
    255 y         -4.101167     -4.101576    -0.000409    Cartesian    0.01
    255 z          1.367056      1.365750    -0.001305    Cartesian   -0.10
    256 x        -12.303501    -12.305058    -0.001557    Cartesian    0.01
    256 y          4.101167      4.101865     0.000698    Cartesian    0.02
    256 z         -1.367056     -1.366363     0.000693    Cartesian   -0.05
    257 x        -12.303501    -12.305915    -0.002414    Cartesian    0.02
    257 y          1.367056      1.366657    -0.000398    Cartesian   -0.03
    257 z         -4.101167     -4.102296    -0.001129    Cartesian    0.03
    258 x         -4.101167     -4.104211    -0.003044    Cartesian    0.07
    258 y         -1.367056     -1.367803    -0.000748    Cartesian    0.05
    258 z        -12.303501    -12.313828    -0.010327    Cartesian    0.08
    259 x          5.468223      5.463328    -0.004895    Cartesian   -0.09
    259 y         -5.468223     -5.463328     0.004895    Cartesian   -0.09
    259 z         10.936445     10.925332    -0.011113    Cartesian   -0.10
    260 x         10.936445     10.925554    -0.010891    Cartesian   -0.10
    260 y          5.468223      5.463296    -0.004927    Cartesian   -0.09
    260 z          5.468223      5.463015    -0.005207    Cartesian   -0.10
    261 x          5.468223      5.463232    -0.004991    Cartesian   -0.09
    261 y         10.936445     10.923644    -0.012801    Cartesian   -0.12
    261 z         -5.468223     -5.462986     0.005236    Cartesian   -0.10
    262 x         -5.468223     -5.462467     0.005755    Cartesian   -0.11
    262 y          5.468223      5.462467    -0.005755    Cartesian   -0.11
    262 z        -10.936445    -10.922195     0.014250    Cartesian   -0.13
    263 x          4.101167      4.104260     0.003093    Cartesian    0.08
    263 y          4.101167      4.104260     0.003093    Cartesian    0.08
    263 z         12.303501     12.313236     0.009735    Cartesian    0.08
    264 x          9.569389      9.571043     0.001654    Cartesian    0.02
    264 y          1.367056      1.372662     0.005607    Cartesian    0.41
    264 z          9.569389      9.570919     0.001530    Cartesian    0.02
    265 x         -6.835278     -6.838210    -0.002932    Cartesian    0.04
    265 y          6.835278      6.838210     0.002932    Cartesian    0.04
    265 z          9.569389      9.574395     0.005006    Cartesian    0.05
    266 x         -6.835278     -6.838181    -0.002903    Cartesian    0.04
    266 y         -9.569389     -9.574402    -0.005013    Cartesian    0.05
    266 z          6.835278      6.838255     0.002977    Cartesian    0.04
    267 x          4.101167      4.104407     0.003240    Cartesian    0.08
    267 y        -12.303501    -12.313547    -0.010046    Cartesian    0.08
    267 z          4.101167      4.104256     0.003089    Cartesian    0.08
    268 x         -9.569389     -9.571163    -0.001774    Cartesian    0.02
    268 y          9.569389      9.571163     0.001774    Cartesian    0.02
    268 z          1.367056      1.372575     0.005520    Cartesian    0.40
    269 x         -9.569389     -9.571141    -0.001752    Cartesian    0.02
    269 y         -9.569389     -9.571141    -0.001752    Cartesian    0.02
    269 z         -1.367056     -1.372866    -0.005810    Cartesian    0.42
    270 x        -12.303501    -12.314609    -0.011108    Cartesian    0.09
    270 y         -4.101167     -4.103944    -0.002777    Cartesian    0.07
    270 z         -4.101167     -4.104934    -0.003767    Cartesian    0.09
    271 x          6.835278      6.839808     0.004530    Cartesian    0.07
    271 y          9.569389      9.574926     0.005536    Cartesian    0.06
    271 z         -6.835278     -6.838463    -0.003185    Cartesian    0.05
    272 x          6.835278      6.839217     0.003939    Cartesian    0.06
    272 y          6.835278      6.839217     0.003939    Cartesian    0.06
    272 z         -9.569389     -9.575847    -0.006458    Cartesian    0.07
    273 x         -9.569389     -9.582615    -0.013226    Cartesian    0.14
    273 y         -1.367056     -1.374109    -0.007053    Cartesian    0.52
    273 z         -9.569389     -9.583350    -0.013960    Cartesian    0.15
    274 x         -4.101167     -4.104354    -0.003187    Cartesian    0.08
    274 y          4.101167      4.104354     0.003187    Cartesian    0.08
    274 z        -12.303501    -12.318545    -0.015044    Cartesian    0.12
    275 x          2.734111      2.730150    -0.003962    Cartesian   -0.14
    275 y          0.000000      0.000000     0.000000    Cartesian    0.00
    275 z         13.670556     13.654237    -0.016319    Cartesian   -0.12
    276 x          8.202334      8.193239    -0.009095    Cartesian   -0.11
    276 y         -2.734111     -2.730810     0.003301    Cartesian   -0.12
    276 z         10.936445     10.920491    -0.015954    Cartesian   -0.15
    277 x         10.936445     10.920618    -0.015827    Cartesian   -0.14
    277 y          2.734111      2.730788    -0.003323    Cartesian   -0.12
    277 z          8.202334      8.193067    -0.009266    Cartesian   -0.11
    278 x         10.936445     10.920516    -0.015929    Cartesian   -0.15
    278 y          8.202334      8.193175    -0.009158    Cartesian   -0.11
    278 z          2.734111      2.730552    -0.003559    Cartesian   -0.13
    279 x          0.000000      0.000000     0.000000    Cartesian    0.00
    279 y         13.670556     13.654287    -0.016269    Cartesian   -0.12
    279 z          2.734111      2.729897    -0.004214    Cartesian   -0.15
    280 x          2.734111      2.730040    -0.004071    Cartesian   -0.15
    280 y         13.670556     13.654256    -0.016301    Cartesian   -0.12
    280 z         -0.000000     -0.000182    -0.000182    Cartesian *******
    281 x          8.202334      8.193031    -0.009303    Cartesian   -0.11
    281 y         10.936445     10.920261    -0.016184    Cartesian   -0.15
    281 z         -2.734111     -2.730895     0.003216    Cartesian   -0.12
    282 x         -0.000000     -0.000000     0.000000    Cartesian    0.00
    282 y         13.670556     13.653545    -0.017012    Cartesian   -0.12
    282 z         -2.734111     -2.730740     0.003371    Cartesian   -0.12
--------------------------------------------------------------------------------


  Time to end of optimisation  =       28.0960 seconds


  Peak dynamic memory used =     547.23 MB 


  Timing analysis for GULP :

--------------------------------------------------------------------------------
  Task / Subroutine                                          Time (Seconds)
--------------------------------------------------------------------------------
  Calculation of real space energy and derivatives                0.0030
  Calculation of real space energy using symmetry                 0.0110
  Calculation for region 1 energy and derivatives (2-b)          10.4730
  Calculation for region 2a energy                               15.1870
  Calculation for region 2b energy                                0.0030
  Calculation of matrix inversion                                 0.0860
  Symmetry generation of equivalent positions                     0.0040
--------------------------------------------------------------------------------
  Total CPU time                                                 28.0960
--------------------------------------------------------------------------------


  Job Finished at 14:19.39 21st November   2018                               

